REMARK  13 active torsions:
REMARK  status: ('A' for Active; 'I' for Inactive)
REMARK    1  A    between atoms: O_5  and  N_6 
REMARK    2  A    between atoms: N_6  and  C_7 
REMARK    3  A    between atoms: N_6  and  C_13 
REMARK    4  A    between atoms: C_13  and  C_14 
REMARK    5  A    between atoms: C_13  and  C_20 
REMARK    6  A    between atoms: C_14  and  C_16 
REMARK    7  A    between atoms: C_16  and  C_17 
REMARK    8  A    between atoms: C_20  and  C_22 
REMARK    9  A    between atoms: C_22  and  C_23 
REMARK   10  A    between atoms: C_22  and  C_26 
REMARK   11  A    between atoms: C_23  and  C_24 
REMARK   12  A    between atoms: C_24  and  O_25 
REMARK   13  A    between atoms: C_26  and  C_28 
ROOT
HETATM    1  C   UNL     1       1.030   1.125   0.976  1.00  0.00     0.144 C 
ENDROOT
BRANCH   1   2
HETATM    2  N   UNL     1       0.000   0.000   0.000  1.00  0.00     0.000 N 
HETATM    3  S   UNL     1       0.000  -1.000   0.000  1.00  0.00    -0.087 SA
HETATM    4  C   UNL     1       1.000  -1.000   0.000  1.00  0.00     0.089 A 
HETATM    5  O   UNL     1       0.000  -2.000   0.000  1.00  0.00     0.000 OA
HETATM    6  O   UNL     1      -1.000  -1.000   0.000  1.00  0.00     0.000 OA
HETATM    7  C   UNL     1       1.860  -1.056  -1.119  1.00  0.00    -0.001 C 
BRANCH   2   8
HETATM    8  C   UNL     1      -1.060   1.004  -0.658  1.00  0.00     0.224 C 
HETATM    9  O   UNL     1      -2.265   0.551  -1.206  1.00  0.00    -0.299 OA
HETATM   10  C   UNL     1      -3.134   1.573  -1.041  1.00  0.00     0.171 C 
HETATM   11  C   UNL     1      -2.420   2.661  -0.623  1.00  0.00     0.056 C 
HETATM   12  N   UNL     1      -1.075   2.318  -0.510  1.00  0.00    -0.224 NA
HETATM   13  C   UNL     1      -2.970   3.987  -0.247  1.00  0.00     0.072 C 
ENDBRANCH   2   8
ENDBRANCH   1   2
BRANCH   1  14
HETATM   14  C   UNL     1       0.621   2.535   1.458  1.00  0.00     0.146 C 
HETATM   15  O   UNL     1      -0.496   2.751   1.963  1.00  0.00    -0.297 OA
BRANCH  14  16
HETATM   16  C   UNL     1       1.668   3.631   1.573  1.00  0.00     0.157 C 
BRANCH  16  17
HETATM   17  C   UNL     1       1.276   5.035   1.196  1.00  0.00     0.130 C 
HETATM   18  C   UNL     1       0.242   5.264   0.132  1.00  0.00     0.091 C 
HETATM   19  O   UNL     1       1.836   6.002   1.720  1.00  0.00    -0.298 OA
ENDBRANCH  16  17
ENDBRANCH  14  16
ENDBRANCH   1  14
BRANCH   1  20
HETATM   20  C   UNL     1       2.596   0.857   1.182  1.00  0.00     0.151 C 
HETATM   21  O   UNL     1       2.919   0.477   2.316  1.00  0.00    -0.296 OA
BRANCH  20  22
HETATM   22  C   UNL     1       3.770   1.157   0.201  1.00  0.00     0.133 C 
BRANCH  22  23
HETATM   23  C   UNL     1       3.449   2.153  -0.956  1.00  0.00     0.046 C 
BRANCH  23  24
HETATM   24  C   UNL     1       4.599   3.164  -1.124  1.00  0.00     0.165 C 
BRANCH  24  25
HETATM   25  O   UNL     1       4.172   4.417  -0.597  1.00  0.00    -0.401 OA
HETATM   26  H   UNL     1       4.935   5.018  -0.665  1.00  0.00     0.209 HD
ENDBRANCH  24  25
ENDBRANCH  23  24
ENDBRANCH  22  23
BRANCH  22  27
HETATM   27  C   UNL     1       4.690   0.048  -0.405  1.00  0.00     0.174 C 
HETATM   28  O   UNL     1       4.976   0.190  -1.604  1.00  0.00    -0.291 OA
BRANCH  27  29
HETATM   29  C   UNL     1       5.201  -1.240   0.264  1.00  0.00     0.060 C 
HETATM   30  C   UNL     1       6.422  -1.834  -0.190  1.00  0.00     0.185 C 
HETATM   31  C   UNL     1       6.520  -3.237  -0.018  1.00  0.00     0.056 C 
HETATM   32  O   UNL     1       7.393  -1.182  -0.721  1.00  0.00    -0.287 OA
HETATM   33  C   UNL     1       5.546  -4.013   0.618  1.00  0.00     0.004 C 
HETATM   34  C   UNL     1       4.470  -3.382   1.200  1.00  0.00     0.001 C 
HETATM   35  C   UNL     1       4.322  -2.000   1.055  1.00  0.00     0.019 C 
ENDBRANCH  27  29
ENDBRANCH  22  27
ENDBRANCH  20  22
ENDBRANCH   1  20
TORSDOF 13
