REMARK  4 active torsions:
REMARK  status: ('A' for Active; 'I' for Inactive)
REMARK    1  A    between atoms: S_2  and  C_3 
REMARK    2  A    between atoms: C_3  and  N_5 
REMARK    3  A    between atoms: N_5  and  C_6 
REMARK    4  A    between atoms: C_6  and  C_7 
ROOT
HETATM    1  C   UNL     1       0.008   0.611  -0.003  1.00  0.00    -0.039 A 
HETATM    2  C   UNL     1      -1.265   1.055   0.377  1.00  0.00     0.010 A 
HETATM    3  C   UNL     1      -1.545   2.421   0.479  1.00  0.00     0.026 A 
HETATM    4  C   UNL     1      -0.547   3.367   0.226  1.00  0.00     0.055 A 
HETATM    5 CL   UNL     1      -0.963   5.036   0.378  1.00  0.00    -0.083 Cl
HETATM    6  C   UNL     1       0.735   2.940  -0.126  1.00  0.00     0.056 A 
HETATM    7 CL   UNL     1       2.031   4.044  -0.425  1.00  0.00    -0.083 Cl
HETATM    8  C   UNL     1       1.008   1.571  -0.240  1.00  0.00     0.034 A 
ENDROOT
BRANCH   1   9
HETATM    9  C   UNL     1       0.371  -0.854  -0.078  1.00  0.00     0.159 C 
BRANCH   9  10
HETATM   10  N   UNL     1      -0.769  -1.723  -0.312  1.00  0.00    -0.371 N 
HETATM   11  H   UNL     1      -1.309  -1.543  -1.150  1.00  0.00     0.161 HD
BRANCH  10  12
HETATM   12  C   UNL     1      -0.997  -2.942   0.262  1.00  0.00     0.134 C 
HETATM   13  S   UNL     1      -0.188  -3.627   1.550  1.00  0.00    -0.053 SA
BRANCH  12  14
HETATM   14  S   UNL     1      -2.278  -3.770  -0.596  1.00  0.00    -0.105 SA
HETATM   15  C   UNL     1      -3.719  -3.070   0.237  1.00  0.00     0.098 C 
ENDBRANCH  12  14
ENDBRANCH  10  12
ENDBRANCH   9  10
ENDBRANCH   1   9
TORSDOF 4
