REMARK  4 active torsions:
REMARK  status: ('A' for Active; 'I' for Inactive)
REMARK    1  A    between atoms: C_3  and  C_4 
REMARK    2  A    between atoms: C_5  and  C_6 
REMARK    3  A    between atoms: C_6  and  O_7 
REMARK    4  A    between atoms: O_7  and  C_8 
ROOT
HETATM    1  C   UNL     1       3.610  -0.432   0.251  1.00  0.00    -0.002 C 
HETATM    2  C   UNL     1       2.418   0.151   0.065  1.00  0.00    -0.000 C 
ENDROOT
BRANCH   2   3
HETATM    3  C   UNL     1       1.176  -0.685   0.100  1.00  0.00     0.205 C 
BRANCH   3   4
HETATM    4  O   UNL     1       0.029   0.154   0.013  1.00  0.00    -0.325 OA
BRANCH   4   5
HETATM    5  C   UNL     1      -1.130  -0.534  -0.096  1.00  0.00     0.398 C 
HETATM    6  O   UNL     1      -2.226  -0.010  -0.197  1.00  0.00    -0.276 OA
ENDBRANCH   4   5
ENDBRANCH   3   4
ENDBRANCH   2   3
BRANCH   1   7
HETATM    7  C   UNL     1       4.910   0.207   0.119  1.00  0.00    -0.005 C 
HETATM    8  C   UNL     1       6.062  -0.500   0.000  1.00  0.00    -0.031 C 
HETATM    9  C   UNL     1       6.062  -1.500   0.000  1.00  0.00     0.036 C 
ENDBRANCH   1   7
TORSDOF 4
