REMARK  3 active torsions:
REMARK  status: ('A' for Active; 'I' for Inactive)
REMARK    1  A    between atoms: O_2  and  C_3 
REMARK    2  A    between atoms: C_4  and  C_6 
REMARK    3  A    between atoms: C_6  and  S_8 
ROOT
HETATM    1  C   UNL     1       3.518  -1.772  -0.033  1.00  0.00     0.181 C 
HETATM    2  C   UNL     1       3.438  -0.439   0.086  1.00  0.00     0.194 C 
HETATM    3  F   UNL     1       4.547   0.253   0.432  1.00  0.00    -0.199 F 
ENDROOT
BRANCH   2   4
HETATM    4  C   UNL     1       2.284   0.424  -0.232  1.00  0.00     0.248 C 
HETATM    5  O   UNL     1       2.047   0.825  -1.361  1.00  0.00    -0.277 OA
BRANCH   4   6
HETATM    6  S   UNL     1       1.297   0.834   1.159  1.00  0.00    -0.089 SA
HETATM    7  C   UNL     1      -0.175   1.407   0.279  1.00  0.00     0.099 C 
ENDBRANCH   4   6
ENDBRANCH   2   4
BRANCH   1   8
HETATM    8  O   UNL     1       2.620  -2.745  -0.358  1.00  0.00    -0.365 OA
HETATM    9  C   UNL     1       1.231  -2.450  -0.364  1.00  0.00     0.209 C 
ENDBRANCH   1   8
TORSDOF 3
