REMARK  3 active torsions:
REMARK  status: ('A' for Active; 'I' for Inactive)
REMARK    1  A    between atoms: C_2  and  C_3 
REMARK    2  A    between atoms: C_3  and  S_4 
REMARK    3  A    between atoms: C_3  and  N_6 
ROOT
HETATM    1  C   UNL     1      -0.797   1.125   0.088  1.00  0.00     0.216 C 
ENDROOT
BRANCH   1   2
HETATM    2  C   UNL     1       0.460   1.986   0.309  1.00  0.00     0.038 C 
HETATM    3  C   UNL     1       1.712   1.531  -0.433  1.00  0.00     0.008 C 
ENDBRANCH   1   2
BRANCH   1   4
HETATM    4  S   UNL     1      -2.227   2.150   0.683  1.00  0.00    -0.142 SA
HETATM    5  C   UNL     1      -3.541   1.478  -0.363  1.00  0.00     0.092 C 
ENDBRANCH   1   4
BRANCH   1   6
HETATM    6  N   UNL     1      -0.680  -0.243   0.776  1.00  0.00    -0.140 N 
HETATM    7  O   UNL     1      -1.736  -0.873   0.955  1.00  0.00    -0.536 OA
HETATM    8  O   UNL     1       0.442  -0.680   1.051  1.00  0.00    -0.536 OA
ENDBRANCH   1   6
TORSDOF 3
