REMARK  5 active torsions:
REMARK  status: ('A' for Active; 'I' for Inactive)
REMARK    1  A    between atoms: O_2  and  C_3 
REMARK    2  A    between atoms: C_3  and  C_5 
REMARK    3  A    between atoms: C_5  and  C_7 
REMARK    4  A    between atoms: C_5  and  N_9 
REMARK    5  A    between atoms: C_7  and  O_8 
ROOT
HETATM    1  C   UNL     1       0.279   1.760   0.000  1.00  0.00     0.161 C 
HETATM    2  C   UNL     1       0.867   2.569   0.000  1.00  0.00     0.054 C 
ENDROOT
BRANCH   1   3
HETATM    3  C   UNL     1      -0.548   2.450  -1.355  1.00  0.00     0.291 C 
HETATM    4  O   UNL     1      -0.061   2.516  -2.493  1.00  0.00    -0.262 OA
BRANCH   3   5
HETATM    5  O   UNL     1      -1.784   3.012  -1.137  1.00  0.00    -0.324 OA
HETATM    6  C   UNL     1      -2.457   3.162   0.131  1.00  0.00     0.213 C 
ENDBRANCH   3   5
ENDBRANCH   1   3
BRANCH   1   7
HETATM    7  C   UNL     1       1.776   0.850  -0.446  1.00  0.00     0.207 C 
BRANCH   7   8
HETATM    8  O   UNL     1       3.040   1.347   0.063  1.00  0.00    -0.398 OA
HETATM    9  H   UNL     1       3.737   0.862  -0.416  1.00  0.00     0.209 HD
ENDBRANCH   7   8
ENDBRANCH   1   7
BRANCH   1  10
HETATM   10  N   UNL     1      -0.309   0.951   0.000  1.00  0.00    -0.239 N 
HETATM   11  N   UNL     1      -0.401   0.021  -1.049  1.00  0.00    -0.065 NA
HETATM   12  N   UNL     1      -1.472  -0.728  -0.920  1.00  0.00    -0.136 NA
HETATM   13  C   UNL     1      -2.048  -0.421   0.257  1.00  0.00     0.071 C 
HETATM   14  C   UNL     1      -1.250   0.482   0.933  1.00  0.00     0.144 C 
HETATM   15  C   UNL     1      -3.379  -1.001   0.524  1.00  0.00     0.074 C 
ENDBRANCH   1  10
TORSDOF 5
