REMARK  3 active torsions:
REMARK  status: ('A' for Active; 'I' for Inactive)
REMARK    1  A    between atoms: C_2  and  C_4 
REMARK    2  A    between atoms: C_5  and  C_6 
REMARK    3  A    between atoms: C_10  and  N_11 
ROOT
HETATM    1  C   UNL     1       3.045  -1.145   0.175  1.00  0.00     0.033 C 
HETATM    2  S   UNL     1       4.590  -1.762   0.611  1.00  0.00    -0.100 SA
HETATM    3  C   UNL     1       4.016  -3.374   0.662  1.00  0.00     0.053 C 
HETATM    4  C   UNL     1       2.683  -3.463   0.328  1.00  0.00     0.040 C 
HETATM    5  C   UNL     1       2.151  -2.190  -0.037  1.00  0.00     0.071 C 
ENDROOT
BRANCH   5   6
HETATM    6  N   UNL     1       0.827  -1.976  -0.516  1.00  0.00    -0.246 N 
HETATM    7  N   UNL     1       0.512  -1.017  -1.421  1.00  0.00     0.009 NA
HETATM    8  N   UNL     1      -0.803  -0.888  -1.457  1.00  0.00    -0.163 NA
HETATM    9  C   UNL     1      -1.339  -1.777  -0.573  1.00  0.00     0.065 C 
HETATM   10  C   UNL     1      -0.330  -2.557  -0.044  1.00  0.00     0.142 C 
HETATM   11  C   UNL     1      -2.780  -1.732  -0.268  1.00  0.00     0.073 C 
ENDBRANCH   5   6
BRANCH   1  12
HETATM   12  C   UNL     1       2.829   0.268   0.135  1.00  0.00     0.025 C 
HETATM   13  C   UNL     1       1.758   0.785   0.764  1.00  0.00     0.051 C 
BRANCH  13  14
HETATM   14  C   UNL     1       1.301   2.196   0.697  1.00  0.00     0.145 C 
HETATM   15  C   UNL     1       2.059   3.184  -0.149  1.00  0.00     0.096 C 
HETATM   16  O   UNL     1       0.294   2.518   1.323  1.00  0.00    -0.294 OA
ENDBRANCH  13  14
ENDBRANCH   1  12
TORSDOF 3
