REMARK  3 active torsions:
REMARK  status: ('A' for Active; 'I' for Inactive)
REMARK    1  A    between atoms: S_2  and  C_3 
REMARK    2  A    between atoms: C_3  and  C_5 
REMARK    3  A    between atoms: C_7  and  O_8 
ROOT
HETATM    1  C   UNL     1       1.119  -0.786  -0.393  1.00  0.00     0.072 C 
HETATM    2  C   UNL     1       1.129   0.692   0.065  1.00  0.00     0.044 C 
HETATM    3  C   UNL     1       2.665   0.653   0.107  1.00  0.00     0.119 C 
HETATM    4  C   UNL     1       2.593  -0.882   0.076  1.00  0.00     0.044 C 
ENDROOT
BRANCH   1   5
HETATM    5  C   UNL     1       0.099  -1.727   0.311  1.00  0.00     0.190 C 
HETATM    6  O   UNL     1       0.281  -2.368   1.339  1.00  0.00    -0.285 OA
BRANCH   5   7
HETATM    7  S   UNL     1      -1.465  -1.803  -0.503  1.00  0.00    -0.097 SA
HETATM    8  C   UNL     1      -2.188  -0.311   0.210  1.00  0.00     0.098 C 
ENDBRANCH   5   7
ENDBRANCH   1   5
BRANCH   3   9
HETATM    9  O   UNL     1       3.331   1.273  -1.007  1.00  0.00    -0.396 OA
HETATM   10  H   UNL     1       4.278   1.101  -0.860  1.00  0.00     0.210 HD
ENDBRANCH   3   9
TORSDOF 3
