REMARK  1 active torsions:
REMARK  status: ('A' for Active; 'I' for Inactive)
REMARK    1  A    between atoms: S_2  and  C_3 
ROOT
HETATM    1  C   UNL     1       0.444   0.878   0.289  1.00  0.00     0.047 C 
HETATM    2  C   UNL     1       1.426   1.785  -0.442  1.00  0.00     0.015 C 
HETATM    3  C   UNL     1       2.786   1.239  -0.019  1.00  0.00     0.001 C 
HETATM    4  C   UNL     1       2.583  -0.262   0.179  1.00  0.00     0.001 C 
HETATM    5  C   UNL     1       1.074  -0.505   0.133  1.00  0.00     0.015 C 
ENDROOT
BRANCH   1   6
HETATM    6  S   UNL     1      -1.235   0.921  -0.410  1.00  0.00    -0.169 SA
HETATM    7  C   UNL     1      -1.774   2.534   0.206  1.00  0.00     0.090 C 
ENDBRANCH   1   6
TORSDOF 1
