REMARK  15 active torsions:
REMARK  status: ('A' for Active; 'I' for Inactive)
REMARK    1  A    between atoms: O_5  and  N_6 
REMARK    2  A    between atoms: N_6  and  C_7 
REMARK    3  A    between atoms: N_6  and  C_13 
REMARK    4  A    between atoms: C_7  and  C_8 
REMARK    5  A    between atoms: C_13  and  C_14 
REMARK    6  A    between atoms: C_13  and  C_20 
REMARK    7  A    between atoms: C_14  and  C_16 
REMARK    8  A    between atoms: C_16  and  C_17 
REMARK    9  A    between atoms: C_20  and  C_22 
REMARK   10  A    between atoms: C_22  and  C_23 
REMARK   11  A    between atoms: C_22  and  C_26 
REMARK   12  A    between atoms: C_23  and  C_24 
REMARK   13  A    between atoms: C_24  and  O_25 
REMARK   14  A    between atoms: C_26  and  C_28 
REMARK   15  A    between atoms: C_33  and  O_34 
ROOT
HETATM    1  C   UNL     1       0.436   0.919  -1.341  1.00  0.00     0.144 C 
ENDROOT
BRANCH   1   2
HETATM    2  N   UNL     1       0.000   0.000   0.000  1.00  0.00     0.000 N 
HETATM    3  S   UNL     1       0.000  -1.000   0.000  1.00  0.00     0.000 SA
HETATM    4  N   UNL     1       1.000  -1.000   0.000  1.00  0.00     0.000 N 
HETATM    5  O   UNL     1       0.000  -2.000   0.000  1.00  0.00     0.000 OA
HETATM    6  O   UNL     1      -1.000  -1.000   0.000  1.00  0.00     0.000 OA
HETATM    7  C   UNL     1       2.143  -2.029   0.243  1.00  0.00     0.000 C 
HETATM    8  H   UNL     1       1.463  -0.253   0.504  1.00  0.00     0.000 HD
BRANCH   2   9
HETATM    9  C   UNL     1      -0.656   0.987   1.061  1.00  0.00     0.047 C 
BRANCH   9  10
HETATM   10  C   UNL     1      -2.148   1.149   0.946  1.00  0.00    -0.014 A 
HETATM   11  C   UNL     1      -2.904   2.124   0.339  1.00  0.00     0.178 A 
HETATM   12  O   UNL     1      -4.227   1.859   0.492  1.00  0.00    -0.226 OA
HETATM   13  N   UNL     1      -4.381   0.692   1.217  1.00  0.00    -0.141 NA
HETATM   14  C   UNL     1      -3.140   0.271   1.464  1.00  0.00     0.155 A 
ENDBRANCH   9  10
ENDBRANCH   2   9
ENDBRANCH   1   2
BRANCH   1  15
HETATM   15  C   UNL     1       0.322   2.450  -1.227  1.00  0.00     0.146 C 
HETATM   16  O   UNL     1      -0.698   3.025  -1.613  1.00  0.00    -0.297 OA
BRANCH  15  17
HETATM   17  C   UNL     1       1.463   3.248  -0.618  1.00  0.00     0.157 C 
BRANCH  17  18
HETATM   18  C   UNL     1       1.219   4.720  -0.397  1.00  0.00     0.130 C 
HETATM   19  C   UNL     1       0.004   5.151   0.376  1.00  0.00     0.091 C 
HETATM   20  O   UNL     1       2.046   5.549  -0.785  1.00  0.00    -0.298 OA
ENDBRANCH  17  18
ENDBRANCH  15  17
ENDBRANCH   1  15
BRANCH   1  21
HETATM   21  C   UNL     1       1.922   0.549  -1.717  1.00  0.00     0.151 C 
HETATM   22  O   UNL     1       2.790   0.886  -0.894  1.00  0.00    -0.296 OA
BRANCH  21  23
HETATM   23  C   UNL     1       2.334  -0.181  -3.012  1.00  0.00     0.133 C 
BRANCH  23  24
HETATM   24  C   UNL     1       1.242  -1.070  -3.659  1.00  0.00     0.046 C 
BRANCH  24  25
HETATM   25  C   UNL     1       1.164  -2.542  -3.219  1.00  0.00     0.165 C 
BRANCH  25  26
HETATM   26  O   UNL     1      -0.191  -2.883  -2.960  1.00  0.00    -0.401 OA
HETATM   27  H   UNL     1      -0.322  -2.885  -1.988  1.00  0.00     0.209 HD
ENDBRANCH  25  26
ENDBRANCH  24  25
ENDBRANCH  23  24
BRANCH  23  28
HETATM   28  C   UNL     1       3.676  -0.968  -2.939  1.00  0.00     0.173 C 
HETATM   29  O   UNL     1       3.862  -2.028  -3.542  1.00  0.00    -0.291 OA
BRANCH  28  30
HETATM   30  C   UNL     1       4.821  -0.534  -2.110  1.00  0.00     0.044 A 
HETATM   31  C   UNL     1       5.393  -1.428  -1.190  1.00  0.00     0.079 A 
HETATM   32  C   UNL     1       6.419  -1.028  -0.344  1.00  0.00     0.037 A 
HETATM   33  C   UNL     1       6.933   0.265  -0.464  1.00  0.00     0.003 A 
HETATM   34  C   UNL     1       6.411   1.147  -1.418  1.00  0.00     0.001 A 
HETATM   35  C   UNL     1       5.359   0.756  -2.239  1.00  0.00     0.018 A 
BRANCH  31  36
HETATM   36  O   UNL     1       4.971  -2.725  -1.065  1.00  0.00    -0.360 OA
HETATM   37  H   UNL     1       4.605  -3.003  -1.930  1.00  0.00     0.217 HD
ENDBRANCH  31  36
ENDBRANCH  28  30
ENDBRANCH  23  28
ENDBRANCH  21  23
ENDBRANCH   1  21
TORSDOF 15
