REMARK  5 active torsions:
REMARK  status: ('A' for Active; 'I' for Inactive)
REMARK    1  A    between atoms: C_2  and  C_3 
REMARK    2  A    between atoms: C_6  and  C_7 
REMARK    3  A    between atoms: C_7  and  O_9 
REMARK    4  A    between atoms: O_9  and  C_10 
REMARK    5  A    between atoms: C_15  and  O_16 
ROOT
HETATM    1  C   UNL     1      -1.032   3.192  -0.192  1.00  0.00     0.315 C 
HETATM    2  O   UNL     1      -0.037   3.897  -0.328  1.00  0.00    -0.257 OA
ENDROOT
BRANCH   1   3
HETATM    3  C   UNL     1      -0.972   1.781   0.147  1.00  0.00     0.109 A 
HETATM    4  N   UNL     1      -1.858   1.055   0.921  1.00  0.00    -0.360 N 
HETATM    5  C   UNL     1      -1.499  -0.271   0.921  1.00  0.00     0.095 A 
HETATM    6  H   UNL     1      -2.680   1.430   1.374  1.00  0.00     0.165 HD
HETATM    7  C   UNL     1      -0.309  -0.407   0.234  1.00  0.00    -0.041 A 
HETATM    8  C   UNL     1       0.034   0.900  -0.209  1.00  0.00     0.044 A 
BRANCH   7   9
HETATM    9  C   UNL     1       0.524  -1.622  -0.030  1.00  0.00     0.035 C 
HETATM   10  C   UNL     1      -0.109  -2.958   0.314  1.00  0.00     0.010 C 
ENDBRANCH   7   9
ENDBRANCH   1   3
BRANCH   1  11
HETATM   11  O   UNL     1      -2.290   3.741  -0.340  1.00  0.00    -0.269 OA
BRANCH  11  12
HETATM   12  C   UNL     1      -3.473   3.026  -0.604  1.00  0.00     0.134 C 
HETATM   13  C   UNL     1      -4.618   3.463   0.144  1.00  0.00     0.099 C 
HETATM   14  C   UNL     1      -5.709   2.694   0.171  1.00  0.00     0.039 C 
HETATM   15  C   UNL     1      -5.750   1.403  -0.594  1.00  0.00     0.205 C 
HETATM   16  O   UNL     1      -4.746   1.263  -1.623  1.00  0.00    -0.356 OA
HETATM   17  C   UNL     1      -3.604   2.013  -1.475  1.00  0.00     0.175 C 
BRANCH  13  18
HETATM   18  O   UNL     1      -4.542   4.651   0.827  1.00  0.00    -0.358 OA
HETATM   19  H   UNL     1      -3.726   5.101   0.537  1.00  0.00     0.217 HD
ENDBRANCH  13  18
ENDBRANCH  11  12
ENDBRANCH   1  11
TORSDOF 5
