REMARK  5 active torsions:
REMARK  status: ('A' for Active; 'I' for Inactive)
REMARK    1  A    between atoms: C_2  and  O_3 
REMARK    2  A    between atoms: P_4  and  O_14 
REMARK    3  A    between atoms: C_6  and  C_7 
REMARK    4  A    between atoms: C_7  and  N_8 
REMARK    5  A    between atoms: O_14  and  C_15 
ROOT
HETATM    1  O   UNL     1      -1.000  -1.000   0.000  1.00  0.00     0.000 OA
HETATM    2  P   UNL     1       0.000  -1.000   0.000  1.00  0.00     0.079 P 
HETATM    3  O   UNL     1       0.000  -2.000   0.000  1.00  0.00     0.000 OA
HETATM    4  C   UNL     1       1.000  -1.000   0.000  1.00  0.00     0.091 A 
ENDROOT
BRANCH   4   5
HETATM    5  C   UNL     1       2.075  -2.276   0.449  1.00  0.00     0.153 C 
BRANCH   5   6
HETATM    6  N   UNL     1       3.446  -2.052   0.055  1.00  0.00    -0.283 N 
HETATM    7  N   UNL     1       3.952  -2.694  -1.009  1.00  0.00     0.004 NA
HETATM    8  N   UNL     1       5.137  -2.162  -1.257  1.00  0.00    -0.164 NA
HETATM    9  C   UNL     1       5.370  -1.188  -0.322  1.00  0.00     0.065 A 
HETATM   10  C   UNL     1       4.320  -1.155   0.571  1.00  0.00     0.136 A 
HETATM   11  C   UNL     1       6.548  -0.317  -0.407  1.00  0.00     0.073 C 
ENDBRANCH   5   6
ENDBRANCH   4   5
BRANCH   2  12
HETATM   12  O   UNL     1       0.000   0.000   0.000  1.00  0.00    -0.357 OA
BRANCH  12  13
HETATM   13  C   UNL     1       0.299   1.358  -0.353  1.00  0.00     0.169 C 
HETATM   14  C   UNL     1       1.685   1.862   0.075  1.00  0.00     0.033 C 
ENDBRANCH  12  13
ENDBRANCH   2  12
BRANCH   1  15
HETATM   15  C   UNL     1      -2.341  -0.731  -0.331  1.00  0.00    -0.005 C 
HETATM   16  C   UNL     1      -2.787   0.675   0.030  1.00  0.00     0.005 C 
ENDBRANCH   1  15
TORSDOF 5
