REMARK  2 active torsions:
REMARK  status: ('A' for Active; 'I' for Inactive)
REMARK    1  A    between atoms: N_4  and  C_5 
REMARK    2  A    between atoms: N_15  and  N_16 
ROOT
HETATM    1  C   UNL     1      -0.433  -1.302   0.397  1.00  0.00     0.137 C 
HETATM    2  C   UNL     1       0.426  -1.407   1.692  1.00  0.00     0.057 C 
HETATM    3  C   UNL     1       1.787  -0.866   1.298  1.00  0.00    -0.001 C 
HETATM    4  C   UNL     1       2.696  -1.962   0.763  1.00  0.00     0.006 C 
HETATM    5  C   UNL     1       2.376  -1.916  -0.713  1.00  0.00     0.014 C 
HETATM    6  C   UNL     1       0.845  -1.319  -0.866  1.00  0.00     0.007 C 
HETATM    7  C   UNL     1       0.409  -2.787  -1.223  1.00  0.00     0.020 C 
HETATM    8  C   UNL     1       1.512  -0.010   0.000  1.00  0.00    -0.015 C 
HETATM    9  C   UNL     1       1.993   0.823   0.000  1.00  0.00     0.018 C 
HETATM   10  C   UNL     1       0.155   0.868   0.328  1.00  0.00     0.133 C 
HETATM   11  N   UNL     1      -0.944   0.027   0.019  1.00  0.00    -0.138 NA
ENDROOT
BRANCH   1  12
HETATM   12  N   UNL     1      -1.635  -2.138   0.557  1.00  0.00    -0.256 N 
HETATM   13  C   UNL     1      -2.612  -2.498  -0.341  1.00  0.00     0.138 A 
HETATM   14  C   UNL     1      -3.736  -2.741   0.423  1.00  0.00     0.065 A 
HETATM   15  C   UNL     1      -5.119  -3.048   0.012  1.00  0.00     0.073 C 
HETATM   16  N   UNL     1      -3.419  -2.586   1.740  1.00  0.00    -0.164 NA
HETATM   17  N   UNL     1      -2.143  -2.251   1.817  1.00  0.00     0.006 NA
ENDBRANCH   1  12
BRANCH  11  18
HETATM   18  N   UNL     1      -2.148   0.501   0.471  1.00  0.00    -0.060 N 
HETATM   19  O   UNL     1      -2.162   1.087   1.557  1.00  0.00    -0.521 OA
HETATM   20  O   UNL     1      -3.046   0.428  -0.354  1.00  0.00    -0.521 OA
ENDBRANCH  11  18
TORSDOF 2
