REMARK  2 active torsions:
REMARK  status: ('A' for Active; 'I' for Inactive)
REMARK    1  A    between atoms: C_2  and  O_3 
REMARK    2  A    between atoms: O_3  and  C_4 
ROOT
HETATM    1  C   UNL     1      -0.881  -0.646  -0.000  1.00  0.00     0.154 A 
HETATM    2  C   UNL     1      -2.012   0.078  -0.000  1.00  0.00     0.100 A 
HETATM    3  C   UNL     1      -1.920   1.577  -0.000  1.00  0.00     0.128 A 
HETATM    4  S   UNL     1      -3.318   2.524   0.000  1.00  0.00    -0.058 SA
HETATM    5  N   UNL     1      -0.658   2.145   0.000  1.00  0.00    -0.232 NA
HETATM    6  C   UNL     1       0.368   1.364  -0.000  1.00  0.00     0.210 A 
HETATM    7  N   UNL     1       0.322   0.007  -0.000  1.00  0.00    -0.331 N 
HETATM    8  H   UNL     1       1.162  -0.555  -0.000  1.00  0.00     0.168 HD
ENDROOT
BRANCH   1   9
HETATM    9  O   UNL     1      -0.801  -2.057  -0.000  1.00  0.00    -0.268 OA
BRANCH   9  10
HETATM   10  C   UNL     1      -1.884  -2.886   0.000  1.00  0.00     0.405 C 
HETATM   11  O   UNL     1      -3.069  -2.597  -0.000  1.00  0.00    -0.276 OA
ENDBRANCH   9  10
ENDBRANCH   1   9
TORSDOF 2
