REMARK  3 active torsions:
REMARK  status: ('A' for Active; 'I' for Inactive)
REMARK    1  A    between atoms: C_2  and  O_3 
REMARK    2  A    between atoms: C_2  and  C_11 
REMARK    3  A    between atoms: O_3  and  C_4 
ROOT
HETATM    1  O   UNL     1      -0.031   2.250   0.226  1.00  0.00    -0.269 OA
ENDROOT
BRANCH   1   2
HETATM    2  C   UNL     1       1.253   1.822   0.378  1.00  0.00     0.324 C 
HETATM    3  O   UNL     1       2.113   2.559   0.868  1.00  0.00    -0.257 OA
BRANCH   2   4
HETATM    4  C   UNL     1       1.576   0.481  -0.042  1.00  0.00     0.177 A 
HETATM    5  O   UNL     1       0.781  -0.243  -0.880  1.00  0.00    -0.207 OA
HETATM    6  N   UNL     1       1.348  -1.496  -1.097  1.00  0.00    -0.140 NA
HETATM    7  C   UNL     1       2.504  -1.479  -0.433  1.00  0.00     0.149 A 
HETATM    8  C   UNL     1       2.707  -0.264   0.233  1.00  0.00     0.067 A 
ENDBRANCH   2   4
ENDBRANCH   1   2
BRANCH   1   9
HETATM    9  C   UNL     1      -1.331   1.667   0.070  1.00  0.00     0.129 C 
HETATM   10  C   UNL     1      -2.371   2.535  -0.498  1.00  0.00     0.227 C 
HETATM   11  C   UNL     1      -3.641   2.100  -0.408  1.00  0.00     0.192 C 
HETATM   12  O   UNL     1      -1.928   3.612  -0.981  1.00  0.00    -0.283 OA
HETATM   13  O   UNL     1      -4.078   0.911   0.107  1.00  0.00    -0.355 OA
HETATM   14  C   UNL     1      -3.065  -0.063   0.378  1.00  0.00     0.205 C 
HETATM   15  C   UNL     1      -1.668   0.450   0.522  1.00  0.00     0.041 C 
ENDBRANCH   1   9
TORSDOF 3
