REMARK  2 active torsions:
REMARK  status: ('A' for Active; 'I' for Inactive)
REMARK    1  A    between atoms: S_2  and  C_3 
REMARK       I    between atoms: C_3  and  N_5 
REMARK    2  A    between atoms: N_5  and  C_6 
ROOT
HETATM    1  C   UNL     1       0.686  -0.878   0.430  1.00  0.00     0.119 C 
HETATM    2  C   UNL     1       1.968  -1.526  -0.113  1.00  0.00     0.030 C 
HETATM    3  C   UNL     1       2.037  -2.991   0.296  1.00  0.00     0.007 C 
HETATM    4  C   UNL     1       0.879  -3.775  -0.315  1.00  0.00     0.039 C 
HETATM    5  C   UNL     1      -0.452  -3.070  -0.222  1.00  0.00    -0.050 A 
HETATM    6  C   UNL     1      -1.616  -3.792  -0.532  1.00  0.00     0.007 A 
HETATM    7  C   UNL     1      -2.869  -3.182  -0.492  1.00  0.00     0.001 A 
HETATM    8  C   UNL     1      -2.977  -1.845  -0.129  1.00  0.00     0.001 A 
HETATM    9  C   UNL     1      -1.830  -1.117   0.183  1.00  0.00     0.010 A 
HETATM   10  C   UNL     1      -0.552  -1.705   0.111  1.00  0.00    -0.029 A 
ENDROOT
BRANCH   1  11
HETATM   11  N   UNL     1       0.560   0.451  -0.139  1.00  0.00    -0.343 N 
HETATM   12  C   UNL     1       0.458   1.580   0.609  1.00  0.00     0.280 C 
HETATM   13  O   UNL     1       0.665   1.705   1.801  1.00  0.00    -0.260 OA
HETATM   14  H   UNL     1       0.262   0.530  -1.101  1.00  0.00     0.164 HD
BRANCH  12  15
HETATM   15  S   UNL     1      -0.078   2.882  -0.424  1.00  0.00    -0.074 SA
HETATM   16  C   UNL     1       1.113   4.128   0.093  1.00  0.00     0.100 C 
ENDBRANCH  12  15
ENDBRANCH   1  11
TORSDOF 2
