REMARK  6 active torsions:
REMARK  status: ('A' for Active; 'I' for Inactive)
REMARK       I    between atoms: C_2  and  N_3 
REMARK    1  A    between atoms: C_2  and  C_7 
REMARK    2  A    between atoms: N_3  and  C_4 
REMARK    3  A    between atoms: C_4  and  C_5 
REMARK    4  A    between atoms: C_5  and  O_6 
REMARK    5  A    between atoms: C_7  and  O_9 
REMARK    6  A    between atoms: O_9  and  C_10 
ROOT
HETATM    1  C   UNL     1       3.007   0.112   0.044  1.00  0.00     0.356 C 
HETATM    2  O   UNL     1       4.024   0.708  -0.302  1.00  0.00    -0.253 OA
ENDROOT
BRANCH   1   3
HETATM    3  C   UNL     1       3.197  -1.252   0.748  1.00  0.00     0.317 C 
HETATM    4  O   UNL     1       2.503  -1.646   1.670  1.00  0.00    -0.262 OA
HETATM    5  N   UNL     1       4.218  -2.007   0.170  1.00  0.00    -0.350 N 
HETATM    6  H   UNL     1       4.716  -1.522  -0.572  1.00  0.00     0.162 HD
BRANCH   5   7
HETATM    7  C   UNL     1       4.002  -3.426   0.030  1.00  0.00     0.149 C 
BRANCH   7   8
HETATM    8  C   UNL     1       5.276  -4.248  -0.135  1.00  0.00     0.183 C 
BRANCH   8   9
HETATM    9  O   UNL     1       4.957  -5.581  -0.533  1.00  0.00    -0.399 OA
HETATM   10  H   UNL     1       4.214  -5.884   0.018  1.00  0.00     0.209 HD
ENDBRANCH   8   9
ENDBRANCH   7   8
ENDBRANCH   5   7
ENDBRANCH   1   3
BRANCH   1  11
HETATM   11  O   UNL     1       1.761   0.501  -0.255  1.00  0.00    -0.265 OA
BRANCH  11  12
HETATM   12  C   UNL     1       0.496  -0.175  -0.193  1.00  0.00     0.151 A 
HETATM   13  C   UNL     1      -0.683   0.676  -0.008  1.00  0.00     0.205 A 
HETATM   14  C   UNL     1      -1.866   0.041   0.048  1.00  0.00     0.057 A 
HETATM   15  O   UNL     1      -0.435   1.907   0.083  1.00  0.00    -0.286 OA
HETATM   16  C   UNL     1      -2.026  -1.437  -0.077  1.00  0.00     0.206 A 
HETATM   17  O   UNL     1      -0.845  -2.192  -0.391  1.00  0.00    -0.356 OA
HETATM   18  C   UNL     1       0.340  -1.497  -0.401  1.00  0.00     0.176 A 
ENDBRANCH  11  12
ENDBRANCH   1  11
TORSDOF 6
