REMARK  2 active torsions:
REMARK  status: ('A' for Active; 'I' for Inactive)
REMARK    1  A    between atoms: S_2  and  C_3 
REMARK    2  A    between atoms: C_3  and  C_5 
ROOT
HETATM    1  C   UNL     1       1.376   0.740   0.110  1.00  0.00     0.149 A 
HETATM    2  N   UNL     1       2.439  -0.078   0.195  1.00  0.00    -0.124 NA
HETATM    3  O   UNL     1       1.958  -1.361   0.120  1.00  0.00    -0.225 OA
HETATM    4  C   UNL     1       0.611  -1.334   0.031  1.00  0.00     0.179 A 
HETATM    5  C   UNL     1       0.170  -0.033   0.049  1.00  0.00    -0.002 A 
HETATM    6  C   UNL     1      -1.239   0.423   0.011  1.00  0.00     0.053 C 
ENDROOT
BRANCH   1   7
HETATM    7  C   UNL     1       1.491   2.210   0.053  1.00  0.00     0.239 C 
HETATM    8  O   UNL     1       0.575   2.918  -0.353  1.00  0.00    -0.278 OA
BRANCH   7   9
HETATM    9  S   UNL     1       2.943   2.974   0.699  1.00  0.00    -0.090 SA
HETATM   10  C   UNL     1       4.279   2.123  -0.164  1.00  0.00     0.099 C 
ENDBRANCH   7   9
ENDBRANCH   1   7
TORSDOF 2
