REMARK  3 active torsions:
REMARK  status: ('A' for Active; 'I' for Inactive)
REMARK    1  A    between atoms: N_4  and  C_5 
REMARK    2  A    between atoms: N_9  and  N_10 
REMARK    3  A    between atoms: C_11  and  C_12 
ROOT
HETATM    1  C   UNL     1       0.230  -3.661   0.044  1.00  0.00     0.770 A 
HETATM    2  N   UNL     1       1.160  -4.599   0.021  1.00  0.00     0.047 NA
HETATM    3  N   UNL     1       0.510  -5.811   0.006  1.00  0.00    -0.126 NA
HETATM    4  C   UNL     1      -0.785  -5.574   0.010  1.00  0.00     0.278 A 
HETATM    5  N   UNL     1      -1.024  -4.227   0.030  1.00  0.00    -0.051 N 
ENDROOT
BRANCH   5   6
HETATM    6  N   UNL     1      -2.163  -3.512   0.022  1.00  0.00    -0.163 NA
HETATM    7  C   UNL     1      -3.343  -4.005   0.004  1.00  0.00     0.151 C 
BRANCH   7   8
HETATM    8  C   UNL     1      -4.464  -3.029  -0.005  1.00  0.00    -0.017 A 
HETATM    9  C   UNL     1      -4.178  -1.654  -0.003  1.00  0.00     0.013 A 
HETATM   10  C   UNL     1      -5.202  -0.711  -0.003  1.00  0.00     0.001 A 
HETATM   11  C   UNL     1      -6.525  -1.136  -0.005  1.00  0.00     0.000 A 
HETATM   12  C   UNL     1      -6.816  -2.509  -0.007  1.00  0.00     0.001 A 
HETATM   13  C   UNL     1      -5.788  -3.459  -0.007  1.00  0.00     0.013 A 
ENDBRANCH   7   8
ENDBRANCH   5   6
BRANCH   1  14
HETATM   14  N   UNL     1       0.482  -2.294   0.057  1.00  0.00    -0.049 N 
HETATM   15  C   UNL     1       1.673  -1.606   0.013  1.00  0.00     0.168 A 
HETATM   16  C   UNL     1       1.326  -0.271  -0.063  1.00  0.00     0.072 A 
HETATM   17  C   UNL     1       2.173   0.944  -0.316  1.00  0.00     0.074 C 
HETATM   18  N   UNL     1      -0.036  -0.180  -0.006  1.00  0.00    -0.135 NA
HETATM   19  N   UNL     1      -0.533  -1.399   0.081  1.00  0.00    -0.046 NA
ENDBRANCH   1  14
TORSDOF 3
