REMARK  5 active torsions:
REMARK  status: ('A' for Active; 'I' for Inactive)
REMARK    1  A    between atoms: C_2  and  C_3 
REMARK    2  A    between atoms: C_3  and  O_4 
REMARK    3  A    between atoms: C_3  and  C_7 
REMARK    4  A    between atoms: O_4  and  C_5 
REMARK    5  A    between atoms: C_7  and  N_9 
ROOT
HETATM    1  C   UNL     1      -1.371   1.186  -0.217  1.00  0.00     0.193 C 
ENDROOT
BRANCH   1   2
HETATM    2  C   UNL     1      -0.118   1.971   0.188  1.00  0.00     0.035 C 
HETATM    3  C   UNL     1       1.181   1.543  -0.476  1.00  0.00     0.008 C 
ENDBRANCH   1   2
BRANCH   1   4
HETATM    4  O   UNL     1      -2.442   1.748   0.580  1.00  0.00    -0.316 OA
BRANCH   4   5
HETATM    5  C   UNL     1      -3.688   1.671   0.055  1.00  0.00     0.398 C 
HETATM    6  O   UNL     1      -3.994   1.145  -1.003  1.00  0.00    -0.276 OA
ENDBRANCH   4   5
ENDBRANCH   1   4
BRANCH   1   7
HETATM    7  C   UNL     1      -1.338  -0.343   0.011  1.00  0.00     0.098 C 
HETATM    8  N   UNL     1      -2.306  -1.108  -0.396  1.00  0.00    -0.290 NA
HETATM    9  H   UNL     1      -3.035  -0.544  -0.867  1.00  0.00     0.188 HD
BRANCH   7  10
HETATM   10  N   UNL     1      -0.313  -0.971   0.643  1.00  0.00    -0.289 NA
HETATM   11  H   UNL     1      -0.542  -1.939   0.851  1.00  0.00     0.125 HD
HETATM   12  H   UNL     1       0.139  -0.488   1.405  1.00  0.00     0.125 HD
ENDBRANCH   7  10
ENDBRANCH   1   7
TORSDOF 5
