REMARK  5 active torsions:
REMARK  status: ('A' for Active; 'I' for Inactive)
REMARK    1  A    between atoms: C_2  and  C_3 
REMARK    2  A    between atoms: C_2  and  N_7 
REMARK    3  A    between atoms: C_3  and  C_4 
REMARK    4  A    between atoms: C_4  and  O_6 
REMARK    5  A    between atoms: N_7  and  C_8 
ROOT
HETATM    1  C   UNL     1       2.598  -1.500   0.000  1.00  0.00     0.032 C 
HETATM    2  C   UNL     1       2.598  -0.500   0.000  1.00  0.00     0.082 C 
ENDROOT
BRANCH   2   3
HETATM    3  C   UNL     1       3.709   0.325   0.714  1.00  0.00     0.056 C 
BRANCH   3   4
HETATM    4  C   UNL     1       3.684   1.775   0.159  1.00  0.00     0.116 C 
HETATM    5  C   UNL     1       5.079   2.253  -0.212  1.00  0.00     0.039 C 
BRANCH   4   6
HETATM    6  O   UNL     1       3.106   2.638   1.131  1.00  0.00    -0.396 OA
HETATM    7  H   UNL     1       2.451   3.199   0.675  1.00  0.00     0.210 HD
ENDBRANCH   4   6
ENDBRANCH   3   4
ENDBRANCH   2   3
BRANCH   2   8
HETATM    8  N   UNL     1       1.314   0.029   0.592  1.00  0.00    -0.364 N 
HETATM    9  H   UNL     1       1.361   0.868   1.153  1.00  0.00     0.162 HD
BRANCH   8  10
HETATM   10  C   UNL     1       0.030  -0.281   0.232  1.00  0.00     0.348 C 
HETATM   11  O   UNL     1      -0.931   0.372   0.608  1.00  0.00    -0.284 OA
ENDBRANCH   8  10
ENDBRANCH   2   8
TORSDOF 5
