REMARK  4 active torsions:
REMARK  status: ('A' for Active; 'I' for Inactive)
REMARK    1  A    between atoms: C_2  and  C_3 
REMARK    2  A    between atoms: C_3  and  O_4 
REMARK    3  A    between atoms: C_3  and  C_5 
REMARK    4  A    between atoms: C_5  and  S_7 
ROOT
HETATM    1  C   UNL     1       3.260  -0.391   0.307  1.00  0.00     0.198 C 
ENDROOT
BRANCH   1   2
HETATM    2  C   UNL     1       3.115  -1.784  -0.318  1.00  0.00     0.036 C 
HETATM    3  C   UNL     1       1.968  -2.612   0.241  1.00  0.00     0.008 C 
ENDBRANCH   1   2
BRANCH   1   4
HETATM    4  O   UNL     1       4.244   0.325  -0.436  1.00  0.00    -0.387 OA
HETATM    5  H   UNL     1       4.402   1.166   0.029  1.00  0.00     0.210 HD
ENDBRANCH   1   4
BRANCH   1   6
HETATM    6  C   UNL     1       1.941   0.374   0.457  1.00  0.00     0.214 C 
HETATM    7  O   UNL     1       1.550   0.791   1.543  1.00  0.00    -0.283 OA
BRANCH   6   8
HETATM    8  S   UNL     1       1.033   0.706  -1.018  1.00  0.00    -0.094 SA
HETATM    9  C   UNL     1      -0.601   0.935  -0.278  1.00  0.00     0.099 C 
ENDBRANCH   6   8
ENDBRANCH   1   6
TORSDOF 4
