REMARK  6 active torsions:
REMARK  status: ('A' for Active; 'I' for Inactive)
REMARK    1  A    between atoms: C_2  and  O_3 
REMARK    2  A    between atoms: C_4  and  S_6 
REMARK    3  A    between atoms: S_6  and  C_7 
REMARK    4  A    between atoms: C_7  and  C_9 
REMARK    5  A    between atoms: C_9  and  S_11 
REMARK    6  A    between atoms: S_11  and  C_12 
ROOT
HETATM    1  S   UNL     1       0.651   2.234  -1.312  1.00  0.00    -0.232 SA
ENDROOT
BRANCH   1   2
HETATM    2  C   UNL     1       1.732   3.000   0.000  1.00  0.00     0.151 A 
HETATM    3  C   UNL     1       2.598   2.500   0.000  1.00  0.00     0.100 A 
HETATM    4  C   UNL     1       2.598   1.500   0.000  1.00  0.00     0.055 A 
HETATM    5  C   UNL     1       1.732   4.000   0.000  1.00  0.00     0.055 A 
BRANCH   3   6
HETATM    6  O   UNL     1       3.740   2.847  -1.008  1.00  0.00    -0.398 OA
HETATM    7  H   UNL     1       4.576   2.897  -0.503  1.00  0.00     0.209 HD
ENDBRANCH   3   6
ENDBRANCH   1   2
BRANCH   1   8
HETATM    8  C   UNL     1       0.000   3.000   0.000  1.00  0.00     0.040 C 
HETATM    9  C   UNL     1       0.000   4.000   0.000  1.00  0.00     0.021 C 
BRANCH   8  10
HETATM   10  C   UNL     1      -1.584   2.316  -0.154  1.00  0.00     0.062 C 
HETATM   11  C   UNL     1      -2.760   3.253   0.209  1.00  0.00     0.022 C 
BRANCH  10  12
HETATM   12  S   UNL     1      -1.853   0.820   0.921  1.00  0.00    -0.096 SA
BRANCH  12  13
HETATM   13  C   UNL     1      -0.864  -0.388   0.124  1.00  0.00     0.304 C 
HETATM   14  O   UNL     1      -1.293  -1.521  -0.064  1.00  0.00    -0.295 OA
ENDBRANCH  12  13
ENDBRANCH  10  12
ENDBRANCH   8  10
ENDBRANCH   1   8
TORSDOF 6
