REMARK  2 active torsions:
REMARK  status: ('A' for Active; 'I' for Inactive)
REMARK    1  A    between atoms: S_2  and  C_3 
REMARK    2  A    between atoms: C_4  and  N_5 
ROOT
HETATM    1  C   UNL     1      -0.567  -0.837   0.115  1.00  0.00     0.079 A 
HETATM    2  C   UNL     1      -1.980  -0.738   0.260  1.00  0.00     0.168 A 
HETATM    3  N   UNL     1      -2.370   0.539   0.306  1.00  0.00    -0.109 NA
HETATM    4  O   UNL     1      -1.227   1.297   0.185  1.00  0.00    -0.215 OA
HETATM    5  C   UNL     1      -0.152   0.478   0.073  1.00  0.00     0.095 A 
HETATM    6  C   UNL     1       1.157   1.150  -0.042  1.00  0.00     0.080 C 
ENDROOT
BRANCH   2   7
HETATM    7  N   UNL     1      -2.876  -1.746   0.343  1.00  0.00    -0.381 N 
HETATM    8  H   UNL     1      -3.844  -1.442   0.302  1.00  0.00     0.157 HD
HETATM    9  H   UNL     1      -2.733  -2.581  -0.203  1.00  0.00     0.157 HD
ENDBRANCH   2   7
BRANCH   1  10
HETATM   10  S   UNL     1       0.549  -2.183   0.042  1.00  0.00    -0.128 SA
HETATM   11  C   UNL     1      -0.443  -3.668  -0.086  1.00  0.00     0.096 C 
ENDBRANCH   1  10
TORSDOF 2
