REMARK  3 active torsions:
REMARK  status: ('A' for Active; 'I' for Inactive)
REMARK    1  A    between atoms: S_2  and  C_3 
REMARK    2  A    between atoms: C_3  and  N_5 
REMARK    3  A    between atoms: N_5  and  C_6 
ROOT
HETATM    1  C   UNL     1      -0.595   0.902   0.330  1.00  0.00     0.077 A 
HETATM    2  C   UNL     1      -1.953   1.233   0.151  1.00  0.00     0.062 A 
HETATM    3 CL   UNL     1      -3.190   0.025   0.288  1.00  0.00    -0.082 Cl
HETATM    4  C   UNL     1      -2.353   2.536  -0.166  1.00  0.00     0.026 A 
HETATM    5  C   UNL     1      -1.397   3.541  -0.288  1.00  0.00     0.003 A 
HETATM    6  C   UNL     1      -0.056   3.248  -0.060  1.00  0.00     0.026 A 
HETATM    7  C   UNL     1       0.348   1.945   0.272  1.00  0.00     0.062 A 
HETATM    8 CL   UNL     1       1.982   1.774   0.815  1.00  0.00    -0.082 Cl
ENDROOT
BRANCH   1   9
HETATM    9  N   UNL     1      -0.291  -0.446   0.654  1.00  0.00    -0.339 N 
HETATM   10  H   UNL     1      -1.049  -0.960   1.093  1.00  0.00     0.167 HD
BRANCH   9  11
HETATM   11  C   UNL     1       0.617  -1.291   0.061  1.00  0.00     0.138 C 
HETATM   12  S   UNL     1       1.686  -1.022  -1.190  1.00  0.00    -0.053 SA
BRANCH  11  13
HETATM   13  S   UNL     1       0.394  -2.901   0.745  1.00  0.00    -0.105 SA
HETATM   14  C   UNL     1      -0.880  -3.519  -0.382  1.00  0.00     0.098 C 
ENDBRANCH  11  13
ENDBRANCH   9  11
ENDBRANCH   1   9
TORSDOF 3
