REMARK  15 active torsions:
REMARK  status: ('A' for Active; 'I' for Inactive)
REMARK    1  A    between atoms: C_2  and  C_4 
REMARK    2  A    between atoms: C_4  and  C_5 
REMARK    3  A    between atoms: C_5  and  C_7 
REMARK    4  A    between atoms: C_7  and  O_8 
REMARK    5  A    between atoms: C_7  and  C_18 
REMARK    6  A    between atoms: O_8  and  C_9 
REMARK    7  A    between atoms: C_9  and  C_11 
REMARK    8  A    between atoms: C_14  and  N_15 
REMARK    9  A    between atoms: C_18  and  C_20 
REMARK   10  A    between atoms: C_20  and  C_21 
REMARK   11  A    between atoms: C_20  and  C_24 
REMARK   12  A    between atoms: C_21  and  C_22 
REMARK   13  A    between atoms: C_22  and  O_23 
REMARK   14  A    between atoms: C_24  and  C_26 
REMARK   15  A    between atoms: C_31  and  O_32 
ROOT
HETATM    1  C   UNL     1      -3.439   0.944  -0.603  1.00  0.00     0.271 C 
ENDROOT
BRANCH   1   2
HETATM    2  C   UNL     1      -3.665   2.447  -0.815  1.00  0.00     0.170 C 
HETATM    3  O   UNL     1      -3.185   3.062  -1.762  1.00  0.00    -0.294 OA
BRANCH   2   4
HETATM    4  C   UNL     1      -4.409   3.139   0.295  1.00  0.00     0.159 C 
BRANCH   4   5
HETATM    5  C   UNL     1      -4.659   4.588   0.061  1.00  0.00     0.130 C 
HETATM    6  C   UNL     1      -3.483   5.533   0.019  1.00  0.00     0.091 C 
HETATM    7  O   UNL     1      -5.817   5.019   0.010  1.00  0.00    -0.298 OA
ENDBRANCH   4   5
ENDBRANCH   2   4
ENDBRANCH   1   2
BRANCH   1   8
HETATM    8  O   UNL     1      -4.480   0.039  -0.969  1.00  0.00    -0.300 OA
BRANCH   8   9
HETATM    9  C   UNL     1      -5.546   0.527  -1.659  1.00  0.00     0.267 C 
HETATM   10  O   UNL     1      -5.470   1.442  -2.467  1.00  0.00    -0.265 OA
BRANCH   9  11
HETATM   11  C   UNL     1      -6.878  -0.036  -1.204  1.00  0.00     0.123 C 
HETATM   12  C   UNL     1      -6.782  -0.970   0.000  1.00  0.00     0.168 C 
HETATM   13  N   UNL     1      -8.089  -1.338   0.567  1.00  0.00    -0.262 NA
HETATM   14  C   UNL     1      -9.053  -0.511   0.395  1.00  0.00     0.168 C 
HETATM   15  N   UNL     1      -9.028   0.648  -0.300  1.00  0.00    -0.365 N 
HETATM   16  C   UNL     1      -7.764   1.144  -0.800  1.00  0.00     0.138 C 
HETATM   17  H   UNL     1      -9.641   1.364   0.077  1.00  0.00     0.162 HD
BRANCH  14  18
HETATM   18  N   UNL     1     -10.279  -0.746   0.904  1.00  0.00    -0.273 NA
HETATM   19  H   UNL     1     -11.020  -0.556   0.240  1.00  0.00     0.127 HD
HETATM   20  H   UNL     1     -10.341  -1.698   1.250  1.00  0.00     0.127 HD
ENDBRANCH  14  18
ENDBRANCH   9  11
ENDBRANCH   8   9
ENDBRANCH   1   8
BRANCH   1  21
HETATM   21  C   UNL     1      -1.963   0.592  -0.914  1.00  0.00     0.175 C 
HETATM   22  O   UNL     1      -1.653  -0.158  -1.839  1.00  0.00    -0.294 OA
BRANCH  21  23
HETATM   23  C   UNL     1      -0.902   1.167   0.075  1.00  0.00     0.135 C 
BRANCH  23  24
HETATM   24  C   UNL     1      -0.634   2.650  -0.262  1.00  0.00     0.046 C 
BRANCH  24  25
HETATM   25  C   UNL     1       0.554   3.381   0.352  1.00  0.00     0.165 C 
BRANCH  25  26
HETATM   26  O   UNL     1       1.712   3.213  -0.444  1.00  0.00    -0.401 OA
HETATM   27  H   UNL     1       2.002   2.286  -0.312  1.00  0.00     0.209 HD
ENDBRANCH  25  26
ENDBRANCH  24  25
ENDBRANCH  23  24
BRANCH  23  28
HETATM   28  C   UNL     1       0.343   0.297   0.210  1.00  0.00     0.173 C 
HETATM   29  O   UNL     1       1.482   0.760   0.297  1.00  0.00    -0.291 OA
BRANCH  28  30
HETATM   30  C   UNL     1       0.209  -1.179   0.327  1.00  0.00     0.044 A 
HETATM   31  C   UNL     1       1.260  -1.988  -0.122  1.00  0.00     0.079 A 
HETATM   32  C   UNL     1       1.113  -3.367  -0.168  1.00  0.00     0.037 A 
HETATM   33  C   UNL     1      -0.075  -3.957   0.269  1.00  0.00     0.003 A 
HETATM   34  C   UNL     1      -1.099  -3.162   0.789  1.00  0.00     0.001 A 
HETATM   35  C   UNL     1      -0.952  -1.776   0.836  1.00  0.00     0.018 A 
BRANCH  31  36
HETATM   36  O   UNL     1       2.464  -1.489  -0.544  1.00  0.00    -0.360 OA
HETATM   37  H   UNL     1       2.498  -0.536  -0.313  1.00  0.00     0.217 HD
ENDBRANCH  31  36
ENDBRANCH  28  30
ENDBRANCH  23  28
ENDBRANCH  21  23
ENDBRANCH   1  21
TORSDOF 15
