REMARK  3 active torsions:
REMARK  status: ('A' for Active; 'I' for Inactive)
REMARK    1  A    between atoms: S_2  and  C_3 
REMARK       I    between atoms: C_3  and  N_5 
REMARK    2  A    between atoms: N_5  and  C_6 
REMARK    3  A    between atoms: C_9  and  C_10 
ROOT
HETATM    1  C   UNL     1      -0.151  -1.303  -0.059  1.00  0.00     0.035 A 
HETATM    2  C   UNL     1       0.061  -2.684  -0.025  1.00  0.00     0.030 A 
HETATM    3  C   UNL     1      -1.025  -3.573  -0.003  1.00  0.00     0.016 A 
HETATM    4  C   UNL     1      -2.343  -3.097  -0.006  1.00  0.00    -0.002 A 
HETATM    5  C   UNL     1      -2.539  -1.710  -0.026  1.00  0.00     0.016 A 
HETATM    6  C   UNL     1      -1.460  -0.825  -0.055  1.00  0.00     0.030 A 
ENDROOT
BRANCH   1   7
HETATM    7  N   UNL     1       0.974  -0.460  -0.075  1.00  0.00    -0.320 N 
HETATM    8  C   UNL     1       0.976   0.904  -0.192  1.00  0.00     0.253 C 
HETATM    9  O   UNL     1       0.039   1.659  -0.392  1.00  0.00    -0.263 OA
HETATM   10  H   UNL     1       1.888  -0.881   0.009  1.00  0.00     0.169 HD
BRANCH   8  11
HETATM   11  S   UNL     1       2.598   1.500   0.000  1.00  0.00    -0.213 SA
HETATM   12  C   UNL     1       2.598   2.500   0.000  1.00  0.00     0.276 C 
ENDBRANCH   8  11
ENDBRANCH   1   7
BRANCH   4  13
HETATM   13  C   UNL     1      -3.484  -4.007   0.007  1.00  0.00     0.085 A 
HETATM   14  O   UNL     1      -4.720  -3.418   0.005  1.00  0.00    -0.322 OA
HETATM   15  C   UNL     1      -5.646  -4.407   0.010  1.00  0.00     0.142 A 
HETATM   16  C   UNL     1      -5.034  -5.636   0.016  1.00  0.00     0.027 A 
HETATM   17  C   UNL     1      -3.640  -5.381   0.017  1.00  0.00     0.040 A 
ENDBRANCH   4  13
TORSDOF 3
