REMARK  3 active torsions:
REMARK  status: ('A' for Active; 'I' for Inactive)
REMARK    1  A    between atoms: S_2  and  C_3 
REMARK    2  A    between atoms: C_3  and  C_5 
REMARK    3  A    between atoms: C_8  and  N_9 
ROOT
HETATM    1  C   UNL     1       1.035  -0.886  -0.489  1.00  0.00     0.100 C 
HETATM    2  C   UNL     1       1.342   0.433   0.271  1.00  0.00     0.017 C 
HETATM    3  C   UNL     1       2.787   0.338  -0.266  1.00  0.00     0.037 C 
HETATM    4  C   UNL     1       2.564  -1.177  -0.468  1.00  0.00     0.229 C 
ENDROOT
BRANCH   1   5
HETATM    5  C   UNL     1       0.035  -1.898   0.148  1.00  0.00     0.191 C 
HETATM    6  O   UNL     1       0.260  -2.727   1.025  1.00  0.00    -0.285 OA
BRANCH   5   7
HETATM    7  S   UNL     1      -1.581  -1.837  -0.573  1.00  0.00    -0.097 SA
HETATM    8  C   UNL     1      -2.163  -0.316   0.202  1.00  0.00     0.098 C 
ENDBRANCH   5   7
ENDBRANCH   1   5
BRANCH   4   9
HETATM    9  N   UNL     1       2.979  -1.840   0.767  1.00  0.00     0.083 N 
HETATM   10  H   UNL     1       2.413  -2.657   1.022  1.00  0.00     0.313 HD
HETATM   11  H   UNL     1       3.947  -2.158   0.768  1.00  0.00     0.313 HD
ENDBRANCH   4   9
TORSDOF 3
