REMARK  10 active torsions:
REMARK  status: ('A' for Active; 'I' for Inactive)
REMARK    1  A    between atoms: C_2  and  C_4 
REMARK    2  A    between atoms: C_4  and  C_5 
REMARK    3  A    between atoms: C_5  and  C_7 
REMARK    4  A    between atoms: C_7  and  C_10 
REMARK    5  A    between atoms: C_10  and  C_12 
REMARK    6  A    between atoms: C_12  and  C_13 
REMARK    7  A    between atoms: C_12  and  C_16 
REMARK    8  A    between atoms: C_13  and  C_14 
REMARK    9  A    between atoms: C_14  and  O_15 
REMARK   10  A    between atoms: C_16  and  C_18 
ROOT
HETATM    1  C   UNL     1       3.464   2.000   0.000  1.00  0.00     0.232 C 
HETATM    2  C   UNL     1       3.464   3.000   0.000  1.00  0.00     0.079 C 
HETATM    3  N   UNL     1       3.464   4.000   0.000  1.00  0.00    -0.196 NA
ENDROOT
BRANCH   1   4
HETATM    4  C   UNL     1       4.057   1.606   1.325  1.00  0.00     0.158 C 
HETATM    5  O   UNL     1       3.490   1.068   2.256  1.00  0.00    -0.296 OA
BRANCH   4   6
HETATM    6  C   UNL     1       5.538   2.018   1.350  1.00  0.00     0.158 C 
BRANCH   6   7
HETATM    7  C   UNL     1       6.062   1.500   0.000  1.00  0.00     0.130 C 
HETATM    8  C   UNL     1       6.062   0.500   0.000  1.00  0.00     0.091 C 
HETATM    9  O   UNL     1       6.468   2.300  -0.840  1.00  0.00    -0.298 OA
ENDBRANCH   6   7
ENDBRANCH   4   6
ENDBRANCH   1   4
BRANCH   1  10
HETATM   10  C   UNL     1       1.950   1.734  -0.370  1.00  0.00     0.163 C 
HETATM   11  O   UNL     1       1.727   1.121  -1.423  1.00  0.00    -0.295 OA
BRANCH  10  12
HETATM   12  C   UNL     1       0.783   2.459   0.411  1.00  0.00     0.134 C 
BRANCH  12  13
HETATM   13  C   UNL     1       0.161   3.758  -0.248  1.00  0.00     0.046 C 
BRANCH  13  14
HETATM   14  C   UNL     1       1.010   5.026  -0.443  1.00  0.00     0.165 C 
BRANCH  14  15
HETATM   15  O   UNL     1       0.201   6.156  -0.798  1.00  0.00    -0.401 OA
HETATM   16  H   UNL     1       0.816   6.906  -0.921  1.00  0.00     0.209 HD
ENDBRANCH  14  15
ENDBRANCH  13  14
ENDBRANCH  12  13
BRANCH  12  17
HETATM   17  C   UNL     1      -0.413   1.540   0.753  1.00  0.00     0.174 C 
HETATM   18  O   UNL     1      -1.365   2.004   1.385  1.00  0.00    -0.291 OA
BRANCH  17  19
HETATM   19  C   UNL     1      -0.313   0.062   0.503  1.00  0.00     0.060 A 
HETATM   20  C   UNL     1      -1.285  -0.662  -0.235  1.00  0.00     0.185 A 
HETATM   21  C   UNL     1      -0.997  -2.040  -0.372  1.00  0.00     0.056 A 
HETATM   22  O   UNL     1      -2.335  -0.166  -0.768  1.00  0.00    -0.287 OA
HETATM   23  C   UNL     1       0.175  -2.648   0.102  1.00  0.00     0.004 A 
HETATM   24  C   UNL     1       1.103  -1.901   0.802  1.00  0.00     0.001 A 
HETATM   25  C   UNL     1       0.827  -0.566   1.049  1.00  0.00     0.019 A 
ENDBRANCH  17  19
ENDBRANCH  12  17
ENDBRANCH  10  12
ENDBRANCH   1  10
TORSDOF 10
