REMARK  4 active torsions:
REMARK  status: ('A' for Active; 'I' for Inactive)
REMARK    1  A    between atoms: C_2  and  O_10 
REMARK    2  A    between atoms: C_4  and  S_7 
REMARK    3  A    between atoms: S_7  and  C_8 
REMARK    4  A    between atoms: O_10  and  C_11 
ROOT
HETATM    1  C   UNL     1       0.806  -1.345   0.390  1.00  0.00     0.291 C 
HETATM    2  C   UNL     1      -0.032  -0.115   0.339  1.00  0.00     0.085 C 
HETATM    3  N   UNL     1      -0.660   0.816   0.283  1.00  0.00    -0.195 NA
ENDROOT
BRANCH   1   4
HETATM    4  O   UNL     1       2.123  -1.129   1.005  1.00  0.00    -0.375 OA
BRANCH   4   5
HETATM    5  C   UNL     1       3.464  -1.000   0.000  1.00  0.00     0.093 C 
HETATM    6  C   UNL     1       3.464  -2.000   0.000  1.00  0.00     0.036 C 
HETATM    7  C   UNL     1       4.597  -0.554   0.927  1.00  0.00     0.049 C 
HETATM    8  C   UNL     1       4.330   0.500   0.000  1.00  0.00     0.012 C 
HETATM    9  C   UNL     1       4.507   2.162   0.238  1.00  0.00     0.027 C 
HETATM   10  C   UNL     1       3.330   0.500   0.000  1.00  0.00     0.059 C 
BRANCH   8  11
HETATM   11  S   UNL     1       5.726   0.382  -1.299  1.00  0.00    -0.092 SA
BRANCH  11  12
HETATM   12  C   UNL     1       7.114   0.587  -0.195  1.00  0.00     0.304 C 
HETATM   13  O   UNL     1       7.724   1.643  -0.089  1.00  0.00    -0.295 OA
ENDBRANCH  11  12
ENDBRANCH   8  11
ENDBRANCH   4   5
ENDBRANCH   1   4
TORSDOF 4
