REMARK  5 active torsions:
REMARK  status: ('A' for Active; 'I' for Inactive)
REMARK    1  A    between atoms: C_4  and  C_5 
REMARK       I    between atoms: C_5  and  N_7 
REMARK    2  A    between atoms: N_7  and  C_8 
REMARK    3  A    between atoms: C_8  and  O_10 
REMARK    4  A    between atoms: O_10  and  C_11 
REMARK    5  A    between atoms: C_20  and  N_21 
ROOT
HETATM    1  C   UNL     1       2.759  -2.840  -0.491  1.00  0.00     0.258 C 
HETATM    2  O   UNL     1       2.467  -3.819  -1.167  1.00  0.00    -0.267 OA
HETATM    3  N   UNL     1       3.965  -2.603   0.130  1.00  0.00    -0.293 N 
HETATM    4  H   UNL     1       3.991  -2.011   0.947  1.00  0.00     0.172 HD
ENDROOT
BRANCH   1   5
HETATM    5  C   UNL     1       1.679  -1.870  -0.175  1.00  0.00     0.033 A 
HETATM    6  C   UNL     1       1.897  -0.462  -0.174  1.00  0.00     0.026 A 
HETATM    7  C   UNL     1       0.866   0.500   0.000  1.00  0.00    -0.028 A 
HETATM    8  C   UNL     1       0.866   1.500   0.000  1.00  0.00     0.050 C 
HETATM    9  C   UNL     1      -0.412  -0.150   0.188  1.00  0.00     0.108 A 
HETATM   10  C   UNL     1      -0.655  -1.537   0.200  1.00  0.00     0.037 A 
HETATM   11  C   UNL     1       0.403  -2.398   0.011  1.00  0.00     0.019 A 
BRANCH   9  12
HETATM   12  N   UNL     1      -1.631   0.672   0.363  1.00  0.00    -0.115 N 
HETATM   13  O   UNL     1      -1.641   1.486   1.297  1.00  0.00    -0.532 OA
HETATM   14  O   UNL     1      -2.561   0.477  -0.430  1.00  0.00    -0.532 OA
ENDBRANCH   9  12
ENDBRANCH   1   5
BRANCH   3  15
HETATM   15  C   UNL     1       5.237  -2.892  -0.327  1.00  0.00     0.222 C 
HETATM   16  S   UNL     1       5.642  -3.585  -1.793  1.00  0.00    -0.032 SA
BRANCH  15  17
HETATM   17  O   UNL     1       6.123  -2.345   0.560  1.00  0.00    -0.280 OA
BRANCH  17  18
HETATM   18  C   UNL     1       7.520  -2.311   0.336  1.00  0.00     0.128 C 
HETATM   19  C   UNL     1       8.355  -3.421   0.781  1.00  0.00     0.227 C 
HETATM   20  C   UNL     1       9.630  -3.406   0.344  1.00  0.00     0.192 C 
HETATM   21  O   UNL     1       7.748  -4.264   1.499  1.00  0.00    -0.283 OA
HETATM   22  O   UNL     1      10.238  -2.419  -0.389  1.00  0.00    -0.355 OA
HETATM   23  C   UNL     1       9.550  -1.161  -0.418  1.00  0.00     0.205 C 
HETATM   24  C   UNL     1       8.079  -1.221  -0.208  1.00  0.00     0.041 C 
ENDBRANCH  17  18
ENDBRANCH  15  17
ENDBRANCH   3  15
TORSDOF 5
