REMARK  3 active torsions:
REMARK  status: ('A' for Active; 'I' for Inactive)
REMARK    1  A    between atoms: C_3  and  S_5 
REMARK    2  A    between atoms: S_5  and  C_6 
REMARK    3  A    between atoms: C_6  and  S_8 
ROOT
HETATM    1  S   UNL     1       1.943  -0.550  -1.164  1.00  0.00    -0.078 SA
ENDROOT
BRANCH   1   2
HETATM    2  C   UNL     1       3.464   0.000   0.000  1.00  0.00     0.036 A 
HETATM    3  C   UNL     1       4.330  -0.500   0.000  1.00  0.00     0.007 A 
HETATM    4  C   UNL     1       4.330  -1.500   0.000  1.00  0.00     0.024 A 
HETATM    5  C   UNL     1       3.464   1.000   0.000  1.00  0.00     0.024 A 
ENDBRANCH   1   2
BRANCH   1   6
HETATM    6  C   UNL     1       0.590   0.248  -0.342  1.00  0.00     0.246 C 
HETATM    7  O   UNL     1       0.679   0.788   0.756  1.00  0.00    -0.273 OA
BRANCH   6   8
HETATM    8  S   UNL     1      -0.906   0.187  -1.240  1.00  0.00    -0.085 SA
HETATM    9  C   UNL     1      -2.046   0.022   0.159  1.00  0.00     0.099 C 
ENDBRANCH   6   8
ENDBRANCH   1   6
TORSDOF 3
