REMARK  3 active torsions:
REMARK  status: ('A' for Active; 'I' for Inactive)
REMARK    1  A    between atoms: N_4  and  C_5 
REMARK    2  A    between atoms: C_9  and  C_10 
REMARK       I    between atoms: C_10  and  N_12 
REMARK    3  A    between atoms: N_12  and  C_13 
ROOT
HETATM    1  C   UNL     1       0.034  -3.626   0.060  1.00  0.00     0.077 A 
HETATM    2  C   UNL     1       1.031  -4.649   0.124  1.00  0.00     0.040 A 
HETATM    3  C   UNL     1       0.477  -5.911   0.099  1.00  0.00     0.053 A 
HETATM    4  S   UNL     1      -1.230  -5.865  -0.017  1.00  0.00    -0.094 SA
HETATM    5  C   UNL     1      -1.237  -4.157  -0.122  1.00  0.00     0.101 A 
ENDROOT
BRANCH   5   6
HETATM    6  C   UNL     1      -2.433  -3.433  -0.520  1.00  0.00     0.265 C 
HETATM    7  O   UNL     1      -2.373  -2.559  -1.381  1.00  0.00    -0.267 OA
HETATM    8  N   UNL     1      -3.625  -3.816   0.079  1.00  0.00    -0.322 N 
HETATM    9  H   UNL     1      -3.704  -4.766   0.417  1.00  0.00     0.169 HD
BRANCH   8  10
HETATM   10  C   UNL     1      -4.774  -2.997   0.073  1.00  0.00     0.035 A 
HETATM   11  C   UNL     1      -4.663  -1.600   0.041  1.00  0.00     0.029 A 
HETATM   12  C   UNL     1      -5.798  -0.792   0.034  1.00  0.00     0.002 A 
HETATM   13  C   UNL     1      -7.061  -1.374   0.048  1.00  0.00     0.000 A 
HETATM   14  C   UNL     1      -7.183  -2.764   0.102  1.00  0.00     0.002 A 
HETATM   15  C   UNL     1      -6.042  -3.576   0.139  1.00  0.00     0.029 A 
ENDBRANCH   8  10
ENDBRANCH   5   6
BRANCH   1  16
HETATM   16  N   UNL     1       0.313  -2.224   0.142  1.00  0.00    -0.246 N 
HETATM   17  C   UNL     1       1.541  -1.606   0.022  1.00  0.00     0.142 A 
HETATM   18  C   UNL     1       1.277  -0.259   0.124  1.00  0.00     0.065 A 
HETATM   19  C   UNL     1       2.174   0.902  -0.029  1.00  0.00     0.073 C 
HETATM   20  N   UNL     1      -0.046  -0.087   0.403  1.00  0.00    -0.163 NA
HETATM   21  N   UNL     1      -0.617  -1.282   0.439  1.00  0.00     0.009 NA
ENDBRANCH   1  16
TORSDOF 3
