REMARK  4 active torsions:
REMARK  status: ('A' for Active; 'I' for Inactive)
REMARK    1  A    between atoms: C_2  and  O_3 
REMARK    2  A    between atoms: O_3  and  C_4 
REMARK    3  A    between atoms: C_4  and  C_6 
REMARK    4  A    between atoms: C_6  and  S_7 
ROOT
HETATM    1  C   UNL     1       2.431   1.733   0.417  1.00  0.00     0.272 C 
HETATM    2  O   UNL     1       1.512   2.075   1.159  1.00  0.00    -0.264 OA
ENDROOT
BRANCH   1   3
HETATM    3  O   UNL     1       3.594   2.457   0.392  1.00  0.00    -0.291 OA
BRANCH   3   4
HETATM    4  C   UNL     1       4.863   2.061  -0.066  1.00  0.00     0.135 C 
HETATM    5  C   UNL     1       5.441   0.871   0.118  1.00  0.00     0.038 C 
ENDBRANCH   3   4
ENDBRANCH   1   3
BRANCH   1   6
HETATM    6  C   UNL     1       2.276   0.666  -0.654  1.00  0.00     0.184 C 
BRANCH   6   7
HETATM    7  S   UNL     1       1.346  -0.799  -0.079  1.00  0.00    -0.164 SA
HETATM    8  C   UNL     1      -0.296  -0.066   0.154  1.00  0.00     0.090 C 
ENDBRANCH   6   7
ENDBRANCH   1   6
TORSDOF 4
