REMARK  5 active torsions:
REMARK  status: ('A' for Active; 'I' for Inactive)
REMARK    1  A    between atoms: C_6  and  N_7 
REMARK    2  A    between atoms: N_7  and  C_8 
REMARK    3  A    between atoms: C_8  and  C_9 
REMARK    4  A    between atoms: C_9  and  S_10 
REMARK    5  A    between atoms: S_10  and  C_11 
ROOT
HETATM    1  C   UNL     1       1.573   0.207   0.000  1.00  0.00     0.015 C 
HETATM    2  C   UNL     1       0.866  -0.500   0.000  1.00  0.00    -0.040 A 
HETATM    3  C   UNL     1       1.489  -1.915  -0.031  1.00  0.00     0.015 C 
HETATM    4  C   UNL     1      -0.457  -0.583   0.734  1.00  0.00     0.001 A 
HETATM    5  C   UNL     1      -1.655  -1.471   0.823  1.00  0.00     0.041 C 
HETATM    6  C   UNL     1      -2.703  -0.617   0.035  1.00  0.00     0.221 C 
HETATM    7  C   UNL     1      -1.798   0.330  -0.836  1.00  0.00     0.041 C 
HETATM    8  C   UNL     1      -0.469  -0.341  -0.779  1.00  0.00     0.001 A 
ENDROOT
BRANCH   6   9
HETATM    9  N   UNL     1      -3.627  -1.398  -0.797  1.00  0.00     0.088 N 
HETATM   10  H   UNL     1      -4.174  -0.746  -1.361  1.00  0.00     0.316 HD
BRANCH   9  11
HETATM   11  C   UNL     1      -4.529  -2.254  -0.015  1.00  0.00     0.280 C 
BRANCH  11  12
HETATM   12  C   UNL     1      -6.016  -1.893  -0.159  1.00  0.00     0.111 C 
BRANCH  12  13
HETATM   13  S   UNL     1      -6.391  -0.253   0.535  1.00  0.00    -0.100 SA
BRANCH  13  14
HETATM   14  C   UNL     1      -8.117  -0.205   0.231  1.00  0.00     0.304 C 
HETATM   15  O   UNL     1      -8.781   0.794   0.471  1.00  0.00    -0.295 OA
ENDBRANCH  13  14
ENDBRANCH  12  13
ENDBRANCH  11  12
ENDBRANCH   9  11
ENDBRANCH   6   9
TORSDOF 5
