REMARK  5 active torsions:
REMARK  status: ('A' for Active; 'I' for Inactive)
REMARK    1  A    between atoms: C_3  and  C_4 
REMARK    2  A    between atoms: C_4  and  O_6 
REMARK    3  A    between atoms: O_6  and  C_7 
REMARK    4  A    between atoms: C_11  and  S_12 
REMARK    5  A    between atoms: S_12  and  C_13 
ROOT
HETATM    1  C   UNL     1       4.330   0.500   0.000  1.00  0.00     0.012 C 
HETATM    2  C   UNL     1       3.464   1.000   0.000  1.00  0.00    -0.115 C 
HETATM    3  C   UNL     1       2.598   1.500   0.000  1.00  0.00     0.125 C 
ENDROOT
BRANCH   3   4
HETATM    4  C   UNL     1       1.072   1.450  -0.000  1.00  0.00     0.137 C 
HETATM    5  C   UNL     1      -0.231   2.335   0.000  1.00  0.00     0.041 C 
BRANCH   4   6
HETATM    6  O   UNL     1       1.399   0.106   0.000  1.00  0.00    -0.328 OA
BRANCH   6   7
HETATM    7  C   UNL     1       0.635  -0.913  -0.000  1.00  0.00     0.168 A 
HETATM    8  N   UNL     1      -0.524  -0.418  -0.000  1.00  0.00    -0.198 NA
HETATM    9  C   UNL     1      -1.547  -1.230  -0.000  1.00  0.00     0.197 A 
HETATM   10  N   UNL     1      -1.419  -2.562  -0.000  1.00  0.00    -0.235 NA
HETATM   11  C   UNL     1      -0.128  -3.027  -0.000  1.00  0.00     0.124 A 
HETATM   12  C   UNL     1       0.987  -2.221  -0.000  1.00  0.00     0.077 A 
BRANCH   9  13
HETATM   13  S   UNL     1      -2.846  -0.075   0.000  1.00  0.00    -0.021 SA
BRANCH  13  14
HETATM   14  C   UNL     1      -4.253  -0.970   0.000  1.00  0.00     0.312 C 
HETATM   15  O   UNL     1      -4.303  -2.182  -0.000  1.00  0.00    -0.295 OA
ENDBRANCH  13  14
ENDBRANCH   9  13
ENDBRANCH   6   7
ENDBRANCH   4   6
ENDBRANCH   3   4
TORSDOF 5
