REMARK  8 active torsions:
REMARK  status: ('A' for Active; 'I' for Inactive)
REMARK    1  A    between atoms: N_3  and  C_4 
REMARK    2  A    between atoms: C_4  and  C_5 
REMARK    3  A    between atoms: C_5  and  O_6 
REMARK    4  A    between atoms: C_5  and  C_7 
REMARK    5  A    between atoms: C_7  and  O_8 
REMARK    6  A    between atoms: O_8  and  C_9 
REMARK    7  A    between atoms: N_18  and  C_19 
REMARK    8  A    between atoms: C_19  and  C_20 
ROOT
HETATM    1  C   UNL     1       2.432   3.543   0.056  1.00  0.00     0.160 C 
ENDROOT
BRANCH   1   2
HETATM    2  C   UNL     1       3.496   2.804  -0.778  1.00  0.00     0.161 C 
BRANCH   2   3
HETATM    3  N   UNL     1       3.609   1.378  -0.508  1.00  0.00    -0.330 N 
HETATM    4  C   UNL     1       2.823   0.392  -1.102  1.00  0.00     0.320 C 
HETATM    5  O   UNL     1       1.993   0.557  -1.979  1.00  0.00    -0.247 OA
HETATM    6  N   UNL     1       3.140  -0.820  -0.494  1.00  0.00    -0.330 N 
HETATM    7  C   UNL     1       4.037  -0.626   0.623  1.00  0.00     0.147 C 
HETATM    8  C   UNL     1       4.491   0.825   0.491  1.00  0.00     0.147 C 
BRANCH   6   9
HETATM    9  C   UNL     1       2.338  -2.013  -0.666  1.00  0.00     0.161 C 
BRANCH   9  10
HETATM   10  C   UNL     1       1.229  -2.157   0.334  1.00  0.00     0.163 A 
HETATM   11  C   UNL     1      -0.109  -1.499   0.090  1.00  0.00     0.201 A 
HETATM   12  O   UNL     1       0.824  -0.979   1.045  1.00  0.00    -0.380 OA
ENDBRANCH   9  10
ENDBRANCH   6   9
ENDBRANCH   2   3
ENDBRANCH   1   2
BRANCH   1  13
HETATM   13  O   UNL     1       2.395   4.919  -0.357  1.00  0.00    -0.392 OA
HETATM   14  H   UNL     1       1.505   5.240  -0.077  1.00  0.00     0.210 HD
ENDBRANCH   1  13
BRANCH   1  15
HETATM   15  C   UNL     1       1.051   2.909  -0.111  1.00  0.00     0.209 C 
BRANCH  15  16
HETATM   16  O   UNL     1       0.070   3.727   0.527  1.00  0.00    -0.343 OA
BRANCH  16  17
HETATM   17  C   UNL     1      -1.247   3.288   0.391  1.00  0.00     0.140 A 
HETATM   18  C   UNL     1      -2.309   4.278   0.673  1.00  0.00     0.205 A 
HETATM   19  C   UNL     1      -3.570   3.825   0.551  1.00  0.00     0.057 A 
HETATM   20  O   UNL     1      -1.904   5.431   0.972  1.00  0.00    -0.286 OA
HETATM   21  C   UNL     1      -3.934   2.427   0.171  1.00  0.00     0.206 A 
HETATM   22  O   UNL     1      -2.857   1.536  -0.140  1.00  0.00    -0.356 OA
HETATM   23  C   UNL     1      -1.595   2.043   0.012  1.00  0.00     0.175 A 
ENDBRANCH  16  17
ENDBRANCH  15  16
ENDBRANCH   1  15
TORSDOF 8
