REMARK  4 active torsions:
REMARK  status: ('A' for Active; 'I' for Inactive)
REMARK    1  A    between atoms: C_2  and  C_3 
REMARK    2  A    between atoms: C_3  and  C_4 
REMARK    3  A    between atoms: C_4  and  C_5 
REMARK    4  A    between atoms: C_13  and  N_14 
ROOT
HETATM    1  C   UNL     1       1.011   1.670  -1.598  1.00  0.00    -0.057 C 
HETATM    2  C   UNL     1       1.884   0.781  -2.215  1.00  0.00     0.009 C 
HETATM    3  C   UNL     1       1.793  -0.567  -1.918  1.00  0.00     0.033 C 
HETATM    4  C   UNL     1       0.821  -1.055  -1.064  1.00  0.00     0.069 C 
HETATM    5  N   UNL     1       0.914  -2.353  -0.767  1.00  0.00    -0.253 NA
HETATM    6  C   UNL     1       0.000  -3.000   0.000  1.00  0.00     0.033 C 
HETATM    7  C   UNL     1       0.000  -4.000   0.000  1.00  0.00     0.070 C 
HETATM    8  C   UNL     1      -1.054  -2.244   0.492  1.00  0.00     0.059 C 
HETATM    9  C   UNL     1      -1.234  -0.891   0.134  1.00  0.00     0.068 C 
HETATM   10  C   UNL     1      -0.207  -0.222  -0.590  1.00  0.00     0.022 C 
HETATM   11  C   UNL     1      -0.072   1.168  -0.859  1.00  0.00     0.023 C 
ENDROOT
BRANCH   9  12
HETATM   12  N   UNL     1      -2.533  -0.329   0.339  1.00  0.00    -0.246 N 
HETATM   13  N   UNL     1      -2.908   0.885  -0.133  1.00  0.00     0.009 NA
HETATM   14  N   UNL     1      -4.227   0.993  -0.057  1.00  0.00    -0.163 NA
HETATM   15  C   UNL     1      -4.715  -0.146   0.509  1.00  0.00     0.065 A 
HETATM   16  C   UNL     1      -3.658  -0.961   0.843  1.00  0.00     0.142 A 
HETATM   17  C   UNL     1      -6.165  -0.388   0.645  1.00  0.00     0.073 C 
ENDBRANCH   9  12
BRANCH   1  18
HETATM   18  C   UNL     1       1.374   3.132  -1.547  1.00  0.00     0.038 C 
BRANCH  18  19
HETATM   19  C   UNL     1       1.900   3.532  -0.156  1.00  0.00     0.004 C 
BRANCH  19  20
HETATM   20  C   UNL     1       2.958   2.604   0.469  1.00  0.00    -0.004 C 
HETATM   21  C   UNL     1       4.277   2.559  -0.285  1.00  0.00     0.005 C 
ENDBRANCH  19  20
ENDBRANCH  18  19
ENDBRANCH   1  18
TORSDOF 4
