REMARK  2 active torsions:
REMARK  status: ('A' for Active; 'I' for Inactive)
REMARK    1  A    between atoms: O_2  and  C_3 
REMARK       I    between atoms: N_6  and  C_7 
REMARK    2  A    between atoms: C_7  and  S_9 
ROOT
HETATM    1  C   UNL     1       1.014   0.765   0.231  1.00  0.00     0.140 C 
HETATM    2  C   UNL     1       2.118   0.223  -0.684  1.00  0.00     0.053 C 
HETATM    3  C   UNL     1       1.332  -0.310  -1.870  1.00  0.00     0.129 C 
HETATM    4  N   UNL     1       0.224  -0.969  -1.217  1.00  0.00    -0.341 N 
HETATM    5  C   UNL     1      -0.027  -2.292  -1.507  1.00  0.00     0.281 C 
HETATM    6  O   UNL     1       0.354  -2.851  -2.533  1.00  0.00    -0.260 OA
HETATM    7  C   UNL     1      -0.168  -0.193  -0.031  1.00  0.00     0.158 C 
ENDROOT
BRANCH   5   8
HETATM    8  S   UNL     1      -0.756  -3.231  -0.226  1.00  0.00    -0.074 SA
HETATM    9  C   UNL     1       0.777  -4.030   0.323  1.00  0.00     0.100 C 
ENDBRANCH   5   8
BRANCH   1  10
HETATM   10  O   UNL     1       0.642   2.103  -0.114  1.00  0.00    -0.389 OA
HETATM   11  C   UNL     1       1.678   3.051   0.119  1.00  0.00     0.202 C 
ENDBRANCH   1  10
TORSDOF 2
