REMARK  3 active torsions:
REMARK  status: ('A' for Active; 'I' for Inactive)
REMARK    1  A    between atoms: N_4  and  C_5 
REMARK    2  A    between atoms: C_5  and  C_6 
REMARK    3  A    between atoms: C_6  and  O_7 
ROOT
HETATM    1  C   UNL     1      -2.804   0.767   1.285  1.00  0.00     0.076 C 
HETATM    2  C   UNL     1      -3.358  -0.228   0.244  1.00  0.00     0.040 C 
HETATM    3  C   UNL     1      -4.575   0.293  -0.534  1.00  0.00     0.003 C 
HETATM    4  C   UNL     1      -4.360   1.701  -1.131  1.00  0.00     0.004 C 
HETATM    5  C   UNL     1      -3.981   2.683   0.000  1.00  0.00    -0.016 C 
HETATM    6  C   UNL     1      -3.981   3.683   0.000  1.00  0.00     0.010 C 
HETATM    7  C   UNL     1      -2.637   2.152   0.634  1.00  0.00     0.043 C 
ENDROOT
BRANCH   1   8
HETATM    8  C   UNL     1      -1.488   0.322   1.968  1.00  0.00     0.183 C 
BRANCH   8   9
HETATM    9  N   UNL     1      -0.532  -0.300   1.094  1.00  0.00    -0.280 N 
HETATM   10  C   UNL     1      -0.363  -1.638   0.882  1.00  0.00     0.136 A 
HETATM   11  C   UNL     1       0.484  -1.693  -0.198  1.00  0.00     0.065 A 
HETATM   12  C   UNL     1       0.934  -2.865  -0.969  1.00  0.00     0.073 C 
HETATM   13  N   UNL     1       0.852  -0.422  -0.547  1.00  0.00    -0.164 NA
HETATM   14  N   UNL     1       0.235   0.425   0.268  1.00  0.00     0.004 NA
ENDBRANCH   8   9
ENDBRANCH   1   8
BRANCH   1  15
HETATM   15  O   UNL     1      -3.773   0.917   2.345  1.00  0.00    -0.388 OA
HETATM   16  H   UNL     1      -4.052   0.036   2.646  1.00  0.00     0.210 HD
ENDBRANCH   1  15
TORSDOF 3
