REMARK  9 active torsions:
REMARK  status: ('A' for Active; 'I' for Inactive)
REMARK    1  A    between atoms: C_2  and  C_4 
REMARK    2  A    between atoms: C_13  and  O_14 
REMARK    3  A    between atoms: C_13  and  C_15 
REMARK    4  A    between atoms: C_15  and  C_17 
REMARK    5  A    between atoms: C_17  and  C_18 
REMARK    6  A    between atoms: C_17  and  C_21 
REMARK    7  A    between atoms: C_18  and  C_19 
REMARK    8  A    between atoms: C_19  and  O_20 
REMARK    9  A    between atoms: C_21  and  C_23 
ROOT
HETATM    1  C   UNL     1       2.464   3.000   0.000  1.00  0.00     0.119 A 
HETATM    2  C   UNL     1       3.464   3.000   0.000  1.00  0.00     0.030 A 
HETATM    3  O   UNL     1       3.464   4.000   0.000  1.00  0.00     0.000 OA
HETATM    4  C   UNL     1       4.464   3.000   0.000  1.00  0.00     0.061 A 
HETATM    5  C   UNL     1       5.456   2.870   1.083  1.00  0.00     0.078 C 
HETATM    6  N   UNL     1       6.745   2.909   0.621  1.00  0.00    -0.376 N 
HETATM    7  C   UNL     1       6.765   3.307  -0.679  1.00  0.00     0.107 C 
HETATM    8  C   UNL     1       5.468   3.378  -1.123  1.00  0.00     0.043 C 
HETATM    9 CL   UNL     1       5.021   3.921  -2.690  1.00  0.00    -0.086 Cl
HETATM   10  C   UNL     1       3.464   2.000   0.000  1.00  0.00     0.175 A 
HETATM   11  H   UNL     1       3.623   4.535   0.826  1.00  0.00     0.000 HD
HETATM   12  H   UNL     1       7.567   2.727   1.184  1.00  0.00     0.164 HD
ENDROOT
BRANCH  10  13
HETATM   13  O   UNL     1       3.267   1.417  -1.500  1.00  0.00    -0.390 OA
HETATM   14  H   UNL     1       4.096   0.968  -1.743  1.00  0.00     0.210 HD
ENDBRANCH  10  13
BRANCH  10  15
HETATM   15  C   UNL     1       2.654   0.853   1.008  1.00  0.00     0.165 C 
HETATM   16  O   UNL     1       2.591   1.077   2.229  1.00  0.00    -0.294 OA
BRANCH  15  17
HETATM   17  C   UNL     1       2.328  -0.546   0.448  1.00  0.00     0.135 C 
BRANCH  17  18
HETATM   18  C   UNL     1       3.651  -1.281   0.163  1.00  0.00     0.046 C 
BRANCH  18  19
HETATM   19  C   UNL     1       3.522  -2.795   0.182  1.00  0.00     0.165 C 
BRANCH  19  20
HETATM   20  O   UNL     1       4.834  -3.344   0.014  1.00  0.00    -0.401 OA
HETATM   21  H   UNL     1       4.708  -4.306  -0.053  1.00  0.00     0.209 HD
ENDBRANCH  19  20
ENDBRANCH  18  19
ENDBRANCH  17  18
BRANCH  17  22
HETATM   22  C   UNL     1       1.388  -0.584  -0.755  1.00  0.00     0.174 C 
HETATM   23  O   UNL     1       1.763  -0.868  -1.894  1.00  0.00    -0.291 OA
BRANCH  22  24
HETATM   24  C   UNL     1      -0.038  -0.198  -0.534  1.00  0.00     0.060 A 
HETATM   25  C   UNL     1      -0.896  -0.982   0.279  1.00  0.00     0.185 A 
HETATM   26  C   UNL     1      -2.191  -0.446   0.436  1.00  0.00     0.056 A 
HETATM   27  O   UNL     1      -0.566  -2.085   0.833  1.00  0.00    -0.287 OA
HETATM   28  C   UNL     1      -2.605   0.774  -0.140  1.00  0.00     0.004 A 
HETATM   29  C   UNL     1      -1.735   1.488  -0.943  1.00  0.00     0.001 A 
HETATM   30  C   UNL     1      -0.465   0.981  -1.176  1.00  0.00     0.019 A 
ENDBRANCH  22  24
ENDBRANCH  17  22
ENDBRANCH  15  17
ENDBRANCH  10  15
BRANCH   1  31
HETATM   31  C   UNL     1       1.336   4.307  -0.348  1.00  0.00     0.126 C 
HETATM   32  C   UNL     1       1.720   5.781  -0.239  1.00  0.00     0.091 C 
HETATM   33  O   UNL     1       0.130   4.056  -0.494  1.00  0.00    -0.298 OA
ENDBRANCH   1  31
TORSDOF 9
