REMARK  9 active torsions:
REMARK  status: ('A' for Active; 'I' for Inactive)
REMARK    1  A    between atoms: S_2  and  C_3 
REMARK    2  A    between atoms: C_3  and  C_4 
REMARK    3  A    between atoms: C_4  and  O_5 
REMARK    4  A    between atoms: C_4  and  C_6 
REMARK    5  A    between atoms: C_6  and  N_7 
REMARK    6  A    between atoms: C_9  and  C_10 
REMARK    7  A    between atoms: C_10  and  C_11 
REMARK    8  A    between atoms: C_11  and  C_12 
REMARK    9  A    between atoms: C_12  and  C_13 
ROOT
HETATM    1  N   UNL     1      -0.391  -0.539  -0.221  1.00  0.00    -0.281 N 
HETATM    2  C   UNL     1      -1.012  -1.616  -0.784  1.00  0.00     0.136 A 
HETATM    3  C   UNL     1      -1.733  -2.168   0.252  1.00  0.00     0.069 A 
HETATM    4  N   UNL     1      -1.497  -1.446   1.392  1.00  0.00    -0.163 NA
HETATM    5  N   UNL     1      -0.685  -0.442   1.086  1.00  0.00     0.004 NA
ENDROOT
BRANCH   1   6
HETATM    6  C   UNL     1       0.376   0.472  -0.921  1.00  0.00     0.178 C 
BRANCH   6   7
HETATM    7  C   UNL     1       0.981   1.600  -0.071  1.00  0.00     0.146 C 
BRANCH   7   8
HETATM    8  C   UNL     1       2.078   1.183   0.920  1.00  0.00     0.107 C 
BRANCH   8   9
HETATM    9  S   UNL     1       3.674   0.809   0.107  1.00  0.00    -0.171 SA
HETATM   10  C   UNL     1       3.556  -0.989  -0.058  1.00  0.00     0.089 C 
ENDBRANCH   8   9
ENDBRANCH   7   8
BRANCH   7  11
HETATM   11  O   UNL     1      -0.056   2.313   0.620  1.00  0.00    -0.393 OA
HETATM   12  H   UNL     1      -0.499   1.675   1.217  1.00  0.00     0.210 HD
ENDBRANCH   7  11
ENDBRANCH   6   7
ENDBRANCH   1   6
BRANCH   3  13
HETATM   13  C   UNL     1      -2.660  -3.327   0.234  1.00  0.00     0.062 C 
BRANCH  13  14
HETATM   14  C   UNL     1      -4.159  -2.990   0.266  1.00  0.00     0.007 C 
BRANCH  14  15
HETATM   15  C   UNL     1      -4.553  -1.597  -0.239  1.00  0.00     0.015 C 
BRANCH  15  16
HETATM   16  C   UNL     1      -6.067  -1.453  -0.334  1.00  0.00     0.114 C 
HETATM   17 CL   UNL     1      -6.503   0.203  -0.817  1.00  0.00    -0.130 Cl
ENDBRANCH  15  16
ENDBRANCH  14  15
ENDBRANCH  13  14
ENDBRANCH   3  13
TORSDOF 9
