REMARK  5 active torsions:
REMARK  status: ('A' for Active; 'I' for Inactive)
REMARK    1  A    between atoms: S_2  and  C_3 
REMARK    2  A    between atoms: C_3  and  C_4 
REMARK    3  A    between atoms: C_3  and  C_6 
REMARK    4  A    between atoms: C_3  and  C_12 
REMARK    5  A    between atoms: C_12  and  O_15 
ROOT
HETATM    1  C   UNL     1       1.732   0.000   0.000  1.00  0.00     0.153 C 
ENDROOT
BRANCH   1   2
HETATM    2  S   UNL     1       2.418   0.574   2.041  1.00  0.00    -0.141 SA
HETATM    3  C   UNL     1       3.636   1.861   1.598  1.00  0.00     0.092 C 
ENDBRANCH   1   2
BRANCH   1   4
HETATM    4  C   UNL     1       1.232   0.866   0.000  1.00  0.00     0.088 C 
HETATM    5  N   UNL     1       0.814   1.947  -0.173  1.00  0.00    -0.195 NA
ENDBRANCH   1   4
BRANCH   1   6
HETATM    6  C   UNL     1       0.104  -0.757   0.423  1.00  0.00    -0.022 A 
HETATM    7  C   UNL     1      -1.034  -0.392  -0.380  1.00  0.00     0.010 A 
HETATM    8  C   UNL     1      -2.319  -0.849  -0.103  1.00  0.00     0.001 A 
HETATM    9  C   UNL     1      -2.524  -1.772   0.910  1.00  0.00     0.000 A 
HETATM   10  C   UNL     1      -1.446  -2.186   1.692  1.00  0.00     0.001 A 
HETATM   11  C   UNL     1      -0.160  -1.645   1.496  1.00  0.00     0.010 A 
ENDBRANCH   1   6
BRANCH   1  12
HETATM   12  C   UNL     1       2.232  -0.866   0.000  1.00  0.00     0.085 C 
HETATM   13  C   UNL     1       2.623  -2.115   0.904  1.00  0.00     0.048 C 
HETATM   14  C   UNL     1       3.708  -0.532  -0.608  1.00  0.00     0.048 C 
BRANCH  12  15
HETATM   15  O   UNL     1       1.815  -1.629  -1.270  1.00  0.00    -0.388 OA
HETATM   16  H   UNL     1       1.096  -2.255  -1.046  1.00  0.00     0.210 HD
ENDBRANCH  12  15
ENDBRANCH   1  12
TORSDOF 5
