REMARK  4 active torsions:
REMARK  status: ('A' for Active; 'I' for Inactive)
REMARK    1  A    between atoms: C_2  and  C_3 
REMARK    2  A    between atoms: C_2  and  O_11 
REMARK    3  A    between atoms: O_11  and  C_12 
REMARK    4  A    between atoms: C_12  and  C_13 
ROOT
HETATM    1  C   UNL     1       2.541   0.588   0.000  1.00  0.00     0.044 C 
HETATM    2  C   UNL     1       2.541   1.588   0.000  1.00  0.00     0.141 C 
ENDROOT
BRANCH   2   3
HETATM    3  C   UNL     1       3.874   2.268   0.328  1.00  0.00     0.015 C 
HETATM    4  C   UNL     1       5.146   1.798   0.450  1.00  0.00    -0.005 C 
HETATM    5  C   UNL     1       5.647   0.402   0.462  1.00  0.00     0.199 C 
HETATM    6  C   UNL     1       6.254   2.832   0.307  1.00  0.00     0.069 C 
HETATM    7  C   UNL     1       6.795   0.149  -0.201  1.00  0.00     0.189 C 
HETATM    8  O   UNL     1       4.964  -0.387   1.158  1.00  0.00    -0.286 OA
HETATM    9  O   UNL     1       7.653   1.090  -0.723  1.00  0.00    -0.359 OA
HETATM   10  C   UNL     1       7.642   2.219   0.159  1.00  0.00     0.179 C 
ENDBRANCH   2   3
BRANCH   2  11
HETATM   11  O   UNL     1       1.492   2.222   0.834  1.00  0.00    -0.375 OA
BRANCH  11  12
HETATM   12  C   UNL     1       0.114   1.932   0.448  1.00  0.00     0.251 C 
BRANCH  12  13
HETATM   13  C   UNL     1      -0.361   0.496   0.494  1.00  0.00     0.178 C 
HETATM   14  N   UNL     1      -0.987  -0.076  -0.551  1.00  0.00    -0.110 NA
HETATM   15  O   UNL     1      -0.948  -1.439  -0.243  1.00  0.00    -0.205 OA
HETATM   16  C   UNL     1      -0.345  -1.537   0.970  1.00  0.00     0.288 C 
HETATM   17  N   UNL     1      -0.057  -0.381   1.516  1.00  0.00    -0.215 NA
ENDBRANCH  12  13
ENDBRANCH  11  12
ENDBRANCH   2  11
TORSDOF 4
