REMARK  4 active torsions:
REMARK  status: ('A' for Active; 'I' for Inactive)
REMARK    1  A    between atoms: N_1  and  C_2 
REMARK    2  A    between atoms: C_5  and  O_6 
REMARK    3  A    between atoms: O_6  and  C_7 
REMARK    4  A    between atoms: C_15  and  N_16 
ROOT
HETATM    1  C   UNL     1       0.880  -1.283  -0.180  1.00  0.00     0.141 A 
HETATM    2  N   UNL     1      -0.203  -1.919  -0.669  1.00  0.00    -0.241 NA
HETATM    3  C   UNL     1      -1.346  -1.191  -0.686  1.00  0.00     0.176 A 
HETATM    4  C   UNL     1      -1.429   0.106  -0.192  1.00  0.00     0.189 A 
HETATM    5  N   UNL     1      -0.338   0.760   0.263  1.00  0.00    -0.208 NA
HETATM    6  C   UNL     1       0.815   0.063   0.259  1.00  0.00     0.143 A 
ENDROOT
BRANCH   4   7
HETATM    7  O   UNL     1      -2.577   0.857  -0.207  1.00  0.00    -0.285 OA
BRANCH   7   8
HETATM    8  C   UNL     1      -3.804   0.290   0.086  1.00  0.00     0.145 C 
HETATM    9  C   UNL     1      -5.012   1.000  -0.436  1.00  0.00     0.186 C 
HETATM   10  C   UNL     1      -6.354   0.528   0.055  1.00  0.00     0.112 C 
HETATM   11  O   UNL     1      -4.905   1.969  -1.184  1.00  0.00    -0.290 OA
HETATM   12  C   UNL     1      -6.277  -0.971   0.228  1.00  0.00     0.182 C 
HETATM   13  O   UNL     1      -5.256  -1.335   1.163  1.00  0.00    -0.360 OA
HETATM   14  C   UNL     1      -4.038  -0.754   0.898  1.00  0.00     0.175 C 
ENDBRANCH   7   8
ENDBRANCH   4   7
BRANCH   6  15
HETATM   15  N   UNL     1       1.941   0.750   0.729  1.00  0.00    -0.284 NA
HETATM   16  H   UNL     1       2.702   0.711   0.063  1.00  0.00     0.125 HD
HETATM   17  H   UNL     1       1.646   1.705   0.919  1.00  0.00     0.125 HD
ENDBRANCH   6  15
BRANCH   1  18
HETATM   18  N   UNL     1       2.043  -2.048  -0.083  1.00  0.00    -0.284 NA
HETATM   19  H   UNL     1       1.869  -2.949  -0.517  1.00  0.00     0.125 HD
HETATM   20  H   UNL     1       2.856  -1.571  -0.444  1.00  0.00     0.125 HD
ENDBRANCH   1  18
TORSDOF 4
