REMARK  3 active torsions:
REMARK  status: ('A' for Active; 'I' for Inactive)
REMARK    1  A    between atoms: N_1  and  C_2 
REMARK    2  A    between atoms: C_4  and  N_5 
REMARK    3  A    between atoms: N_5  and  C_6 
ROOT
HETATM    1  C   UNL     1       1.190  -0.024  -0.354  1.00  0.00     0.242 A 
HETATM    2  C   UNL     1       0.464  -1.132   0.345  1.00  0.00     0.064 A 
HETATM    3  C   UNL     1      -0.079   0.268   0.412  1.00  0.00     0.118 A 
ENDROOT
BRANCH   3   4
HETATM    4  N   UNL     1      -1.245   0.680  -0.295  1.00  0.00    -0.361 N 
HETATM    5  H   UNL     1      -1.215   1.513  -0.872  1.00  0.00     0.162 HD
BRANCH   4   6
HETATM    6  C   UNL     1      -2.477   0.107  -0.161  1.00  0.00     0.348 C 
HETATM    7  O   UNL     1      -3.474   0.520  -0.737  1.00  0.00    -0.284 OA
ENDBRANCH   4   6
ENDBRANCH   3   4
BRANCH   1   8
HETATM    8  N   UNL     1       2.466   0.449   0.175  1.00  0.00     0.085 N 
HETATM    9  H   UNL     1       3.240  -0.088  -0.216  1.00  0.00     0.313 HD
HETATM   10  H   UNL     1       2.633   1.417  -0.100  1.00  0.00     0.313 HD
ENDBRANCH   1   8
TORSDOF 3
