REMARK  4 active torsions:
REMARK  status: ('A' for Active; 'I' for Inactive)
REMARK    1  A    between atoms: C_2  and  N_4 
REMARK    2  A    between atoms: C_2  and  C_5 
REMARK    3  A    between atoms: C_5  and  N_7 
REMARK    4  A    between atoms: N_7  and  C_8 
ROOT
HETATM    1  C   UNL     1       1.331   0.982   0.895  1.00  0.00     0.136 C 
HETATM    2  N   UNL     1       0.603   1.761   1.624  1.00  0.00    -0.285 NA
HETATM    3  H   UNL     1       0.888   2.740   1.582  1.00  0.00     0.188 HD
ENDROOT
BRANCH   1   4
HETATM    4  C   UNL     1       2.598   1.500   0.000  1.00  0.00     0.206 C 
HETATM    5  C   UNL     1       2.598   2.500   0.000  1.00  0.00     0.057 C 
HETATM    6  C   UNL     1       3.828   0.642   0.404  1.00  0.00     0.057 C 
BRANCH   4   7
HETATM    7  N   UNL     1       2.219   1.033  -1.390  1.00  0.00     0.094 N 
HETATM    8  H   UNL     1       2.271   0.024  -1.483  1.00  0.00     0.314 HD
HETATM    9  H   UNL     1       2.893   1.388  -2.073  1.00  0.00     0.314 HD
ENDBRANCH   4   7
ENDBRANCH   1   4
BRANCH   1  10
HETATM   10  N   UNL     1       1.018  -0.360   0.824  1.00  0.00    -0.321 N 
HETATM   11  H   UNL     1       1.414  -0.848   0.040  1.00  0.00     0.169 HD
BRANCH  10  12
HETATM   12  C   UNL     1      -0.111  -0.947   1.368  1.00  0.00     0.354 C 
HETATM   13  O   UNL     1      -0.687  -0.701   2.414  1.00  0.00    -0.283 OA
ENDBRANCH  10  12
ENDBRANCH   1  10
TORSDOF 4
