REMARK  2 active torsions:
REMARK  status: ('A' for Active; 'I' for Inactive)
REMARK    1  A    between atoms: S_2  and  C_3 
REMARK    2  A    between atoms: C_8  and  N_9 
ROOT
HETATM    1  N   UNL     1      -0.654  -1.300  -0.000  1.00  0.00    -0.204 NA
HETATM    2  C   UNL     1      -0.771  -2.458  -0.000  1.00  0.00     0.337 C 
HETATM    3  O   UNL     1      -0.931  -3.623   0.000  1.00  0.00    -0.260 OA
ENDROOT
BRANCH   1   4
HETATM    4  C   UNL     1       0.644  -0.733   0.000  1.00  0.00     0.077 A 
HETATM    5  C   UNL     1       0.733   0.687   0.000  1.00  0.00     0.029 A 
HETATM    6  C   UNL     1       1.985   1.323   0.000  1.00  0.00     0.021 A 
HETATM    7  C   UNL     1       3.150   0.562   0.000  1.00  0.00     0.002 A 
HETATM    8  C   UNL     1       3.074  -0.826  -0.000  1.00  0.00     0.002 A 
HETATM    9  C   UNL     1       1.835  -1.471   0.000  1.00  0.00     0.033 A 
BRANCH   5  10
HETATM   10  S   UNL     1      -0.866   1.500   0.000  1.00  0.00    -0.132 SA
HETATM   11  C   UNL     1      -0.866   2.500   0.000  1.00  0.00     0.095 C 
ENDBRANCH   5  10
ENDBRANCH   1   4
TORSDOF 2
