REMARK  3 active torsions:
REMARK  status: ('A' for Active; 'I' for Inactive)
REMARK    1  A    between atoms: C_6  and  C_7 
REMARK    2  A    between atoms: C_7  and  O_9 
REMARK    3  A    between atoms: O_9  and  C_10 
ROOT
HETATM    1  C   UNL     1       2.249   0.033  -0.171  1.00  0.00     0.318 C 
HETATM    2  O   UNL     1       3.273   0.673   0.038  1.00  0.00    -0.257 OA
ENDROOT
BRANCH   1   3
HETATM    3  C   UNL     1       2.241  -1.392  -0.378  1.00  0.00     0.143 A 
HETATM    4  N   UNL     1       3.311  -2.217  -0.115  1.00  0.00    -0.271 N 
HETATM    5  C   UNL     1       4.641  -1.867   0.321  1.00  0.00     0.176 C 
HETATM    6  N   UNL     1       3.007  -3.509  -0.332  1.00  0.00     0.004 NA
HETATM    7  N   UNL     1       1.787  -3.552  -0.838  1.00  0.00    -0.170 NA
HETATM    8  C   UNL     1       1.319  -2.274  -0.908  1.00  0.00     0.173 A 
ENDBRANCH   1   3
BRANCH   1   9
HETATM    9  O   UNL     1       1.043   0.683  -0.287  1.00  0.00    -0.268 OA
BRANCH   9  10
HETATM   10  C   UNL     1      -0.250   0.245   0.081  1.00  0.00     0.147 C 
HETATM   11  C   UNL     1      -1.404   0.874  -0.620  1.00  0.00     0.187 C 
HETATM   12  C   UNL     1      -2.780   0.555  -0.105  1.00  0.00     0.112 C 
HETATM   13  O   UNL     1      -1.222   1.668  -1.543  1.00  0.00    -0.290 OA
HETATM   14  C   UNL     1      -2.762  -0.872   0.396  1.00  0.00     0.182 C 
HETATM   15  O   UNL     1      -1.786  -1.053   1.430  1.00  0.00    -0.360 OA
HETATM   16  C   UNL     1      -0.537  -0.593   1.089  1.00  0.00     0.175 C 
ENDBRANCH   9  10
ENDBRANCH   1   9
TORSDOF 3
