REMARK  3 active torsions:
REMARK  status: ('A' for Active; 'I' for Inactive)
REMARK    1  A    between atoms: C_2  and  S_3 
REMARK    2  A    between atoms: S_3  and  C_4 
REMARK    3  A    between atoms: C_7  and  C_8 
ROOT
HETATM    1  C   UNL     1       1.470  -0.319  -0.000  1.00  0.00     0.122 A 
HETATM    2  C   UNL     1       1.515  -1.704  -0.000  1.00  0.00     0.043 A 
HETATM    3  C   UNL     1       0.318  -2.424  -0.000  1.00  0.00     0.039 A 
HETATM    4  C   UNL     1      -0.886  -1.732   0.000  1.00  0.00     0.109 A 
HETATM    5  N   UNL     1      -0.892  -0.380   0.000  1.00  0.00    -0.147 NA
HETATM    6  N   UNL     1       0.290   0.324   0.000  1.00  0.00    -0.142 NA
ENDROOT
BRANCH   4   7
HETATM    7  C   UNL     1      -2.190  -2.407   0.000  1.00  0.00     0.108 A 
HETATM    8  N   UNL     1      -3.347  -1.720   0.000  1.00  0.00    -0.173 NA
HETATM    9  N   UNL     1      -4.308  -2.650   0.000  1.00  0.00    -0.289 N 
HETATM   10  C   UNL     1      -3.830  -3.923   0.000  1.00  0.00     0.112 A 
HETATM   11  H   UNL     1      -5.274  -2.338  -0.000  1.00  0.00     0.188 HD
HETATM   12  C   UNL     1      -2.461  -3.806   0.000  1.00  0.00     0.054 A 
ENDBRANCH   4   7
BRANCH   1  13
HETATM   13  S   UNL     1       2.971   0.622   0.000  1.00  0.00    -0.040 SA
BRANCH  13  14
HETATM   14  C   UNL     1       2.375   2.274   0.000  1.00  0.00     0.310 C 
HETATM   15  O   UNL     1       3.157   3.220   0.000  1.00  0.00    -0.295 OA
ENDBRANCH  13  14
ENDBRANCH   1  13
TORSDOF 3
