REMARK  1 active torsions:
REMARK  status: ('A' for Active; 'I' for Inactive)
REMARK    1  A    between atoms: N_6  and  C_7 
ROOT
HETATM    1  C   UNL     1       0.599  -2.381  -0.029  1.00  0.00     0.072 C 
HETATM    2  C   UNL     1      -0.169  -1.113  -0.024  1.00  0.00     0.055 A 
HETATM    3  N   UNL     1      -1.533  -1.155  -0.061  1.00  0.00    -0.238 NA
HETATM    4  C   UNL     1      -1.942   0.098  -0.023  1.00  0.00     0.109 A 
HETATM    5  C   UNL     1      -3.375   0.493  -0.003  1.00  0.00     0.092 C 
HETATM    6  N   UNL     1      -0.871   0.980  -0.003  1.00  0.00    -0.280 N 
HETATM    7  C   UNL     1       0.278   0.194   0.020  1.00  0.00     0.041 A 
HETATM    8  C   UNL     1       1.668   0.721   0.068  1.00  0.00     0.071 C 
ENDROOT
BRANCH   6   9
HETATM    9  C   UNL     1      -0.981   2.377  -0.006  1.00  0.00     0.361 C 
HETATM   10  O   UNL     1       0.021   3.087   0.013  1.00  0.00    -0.283 OA
ENDBRANCH   6   9
TORSDOF 1
