REMARK  3 active torsions:
REMARK  status: ('A' for Active; 'I' for Inactive)
REMARK    1  A    between atoms: S_2  and  C_3 
REMARK    2  A    between atoms: C_3  and  N_5 
REMARK    3  A    between atoms: N_5  and  C_6 
ROOT
HETATM    1  C   UNL     1      -0.598   0.717  -0.212  1.00  0.00     0.095 C 
HETATM    2  C   UNL     1      -1.460   1.928   0.218  1.00  0.00     0.029 C 
HETATM    3  C   UNL     1      -0.630   3.194   0.006  1.00  0.00     0.041 C 
HETATM    4  C   UNL     1       0.765   2.661   0.067  1.00  0.00    -0.050 A 
HETATM    5  C   UNL     1       1.932   3.407   0.147  1.00  0.00     0.007 A 
HETATM    6  C   UNL     1       3.155   2.745   0.047  1.00  0.00     0.001 A 
HETATM    7  C   UNL     1       3.193   1.362  -0.160  1.00  0.00     0.001 A 
HETATM    8  C   UNL     1       2.010   0.623  -0.251  1.00  0.00     0.009 A 
HETATM    9  C   UNL     1       0.791   1.271  -0.081  1.00  0.00    -0.034 A 
ENDROOT
BRANCH   1  10
HETATM   10  N   UNL     1      -1.007  -0.434   0.598  1.00  0.00    -0.269 NA
HETATM   11  H   UNL     1      -1.884  -0.741   0.205  1.00  0.00     0.129 HD
BRANCH  10  12
HETATM   12  C   UNL     1      -0.219  -1.541   0.779  1.00  0.00     0.114 C 
HETATM   13  S   UNL     1       0.785  -1.767   2.089  1.00  0.00    -0.059 SA
BRANCH  12  14
HETATM   14  S   UNL     1      -0.553  -2.770  -0.416  1.00  0.00    -0.111 SA
HETATM   15  C   UNL     1      -2.054  -3.487   0.288  1.00  0.00     0.097 C 
ENDBRANCH  12  14
ENDBRANCH  10  12
ENDBRANCH   1  10
TORSDOF 3
