REMARK  1 active torsions:
REMARK  status: ('A' for Active; 'I' for Inactive)
REMARK    1  A    between atoms: N_4  and  C_5 
ROOT
HETATM    1  C   UNL     1      -1.640  -2.022   0.072  1.00  0.00     0.063 A 
HETATM    2  C   UNL     1      -1.681  -3.445   0.058  1.00  0.00     0.032 A 
HETATM    3  C   UNL     1      -2.888  -4.132  -0.025  1.00  0.00     0.005 A 
HETATM    4  C   UNL     1      -4.052  -3.403  -0.122  1.00  0.00     0.043 A 
HETATM    5  C   UNL     1      -3.995  -2.007  -0.119  1.00  0.00     0.124 A 
HETATM    6  F   UNL     1      -5.180  -1.381  -0.239  1.00  0.00    -0.205 F 
HETATM    7  C   UNL     1      -2.815  -1.202   0.000  1.00  0.00     0.005 A 
HETATM    8  C   UNL     1      -2.815  -0.202   0.000  1.00  0.00     0.054 C 
ENDROOT
BRANCH   1   9
HETATM    9  N   UNL     1      -0.321  -1.433   0.134  1.00  0.00    -0.247 N 
HETATM   10  C   UNL     1       0.906  -2.053   0.004  1.00  0.00     0.142 A 
HETATM   11  C   UNL     1       1.836  -1.049   0.147  1.00  0.00     0.065 A 
HETATM   12  C   UNL     1       3.307  -1.117   0.073  1.00  0.00     0.073 C 
HETATM   13  N   UNL     1       1.188   0.131   0.355  1.00  0.00    -0.163 NA
HETATM   14  N   UNL     1      -0.121  -0.106   0.338  1.00  0.00     0.009 NA
ENDBRANCH   1   9
TORSDOF 1
