REMARK  5 active torsions:
REMARK  status: ('A' for Active; 'I' for Inactive)
REMARK    1  A    between atoms: C_2  and  C_3 
REMARK    2  A    between atoms: C_3  and  C_5 
REMARK    3  A    between atoms: C_5  and  O_6 
REMARK    4  A    between atoms: C_5  and  C_7 
REMARK    5  A    between atoms: C_7  and  S_9 
ROOT
HETATM    1  C   UNL     1       1.763   2.454   0.830  1.00  0.00     0.202 C 
ENDROOT
BRANCH   1   2
HETATM    2  C   UNL     1       2.831   1.797  -0.079  1.00  0.00     0.018 C 
HETATM    3  C   UNL     1       4.082   2.691  -0.140  1.00  0.00     0.013 C 
BRANCH   2   4
HETATM    4  C   UNL     1       3.277   0.391   0.387  1.00  0.00     0.002 C 
HETATM    5  C   UNL     1       2.282  -0.731   0.138  1.00  0.00     0.005 C 
ENDBRANCH   2   4
ENDBRANCH   1   2
BRANCH   1   6
HETATM    6  O   UNL     1       1.574   3.817   0.440  1.00  0.00    -0.387 OA
HETATM    7  H   UNL     1       1.002   4.234   1.112  1.00  0.00     0.210 HD
ENDBRANCH   1   6
BRANCH   1   8
HETATM    8  C   UNL     1       0.411   1.722   0.867  1.00  0.00     0.214 C 
HETATM    9  O   UNL     1      -0.045   1.236   1.900  1.00  0.00    -0.283 OA
BRANCH   8  10
HETATM   10  S   UNL     1      -0.515   1.682  -0.639  1.00  0.00    -0.094 SA
HETATM   11  C   UNL     1      -1.366   0.106  -0.406  1.00  0.00     0.099 C 
ENDBRANCH   8  10
ENDBRANCH   1   8
TORSDOF 5
