REMARK  6 active torsions:
REMARK  status: ('A' for Active; 'I' for Inactive)
REMARK    1  A    between atoms: S_2  and  C_3 
REMARK    2  A    between atoms: C_3  and  C_4 
REMARK    3  A    between atoms: C_4  and  O_5 
REMARK    4  A    between atoms: C_4  and  C_6 
REMARK    5  A    between atoms: C_6  and  N_7 
REMARK    6  A    between atoms: O_10  and  C_11 
ROOT
HETATM    1  N   UNL     1       1.000  -1.000   0.000  1.00  0.00     0.000 N 
HETATM    2  S   UNL     1       1.000   0.000   0.000  1.00  0.00    -0.075 SA
HETATM    3  O   UNL     1       2.000   0.000   0.000  1.00  0.00     0.000 OA
HETATM    4  O   UNL     1       1.000   1.000   0.000  1.00  0.00     0.000 OA
HETATM    5  C   UNL     1       0.000   0.000   0.000  1.00  0.00     0.079 A 
HETATM    6  C   UNL     1      -0.959   0.051  -1.136  1.00  0.00     0.001 A 
HETATM    7  C   UNL     1      -2.372   0.070  -1.059  1.00  0.00    -0.002 A 
HETATM    8  C   UNL     1      -3.013   0.098   0.166  1.00  0.00    -0.001 A 
HETATM    9  C   UNL     1      -2.259   0.108   1.326  1.00  0.00    -0.002 A 
HETATM   10  C   UNL     1      -0.853   0.055   1.243  1.00  0.00     0.001 A 
HETATM   11  H   UNL     1       1.472  -1.458   0.786  1.00  0.00     0.000 HD
ENDROOT
BRANCH   1  12
HETATM   12  C   UNL     1       1.239  -2.096  -1.115  1.00  0.00     0.035 C 
BRANCH  12  13
HETATM   13  C   UNL     1       2.609  -2.026  -1.857  1.00  0.00     0.127 C 
BRANCH  13  14
HETATM   14  C   UNL     1       3.857  -2.619  -1.171  1.00  0.00     0.105 C 
BRANCH  14  15
HETATM   15  S   UNL     1       3.952  -2.562   0.652  1.00  0.00    -0.171 SA
HETATM   16  C   UNL     1       3.372  -4.230   1.035  1.00  0.00     0.089 C 
ENDBRANCH  14  15
ENDBRANCH  13  14
BRANCH  13  17
HETATM   17  O   UNL     1       2.895  -0.701  -2.326  1.00  0.00    -0.395 OA
HETATM   18  H   UNL     1       2.984  -0.143  -1.524  1.00  0.00     0.210 HD
ENDBRANCH  13  17
ENDBRANCH  12  13
ENDBRANCH   1  12
TORSDOF 6
