REMARK  4 active torsions:
REMARK  status: ('A' for Active; 'I' for Inactive)
REMARK    1  A    between atoms: C_7  and  O_8 
REMARK    2  A    between atoms: O_8  and  C_9 
REMARK    3  A    between atoms: C_9  and  N_11 
REMARK    4  A    between atoms: N_11  and  C_12 
ROOT
HETATM    1  N   UNL     1      -0.744   1.084  -0.427  1.00  0.00    -0.322 N 
HETATM    2  H   UNL     1      -0.938   1.899  -0.999  1.00  0.00     0.169 HD
ENDROOT
BRANCH   1   3
HETATM    3  C   UNL     1      -1.896   0.619   0.171  1.00  0.00     0.220 C 
HETATM    4  S   UNL     1      -2.020  -0.231   1.605  1.00  0.00    -0.033 SA
BRANCH   3   5
HETATM    5  O   UNL     1      -2.947   1.251  -0.439  1.00  0.00    -0.280 OA
BRANCH   5   6
HETATM    6  C   UNL     1      -4.326   0.978  -0.229  1.00  0.00     0.128 C 
HETATM    7  C   UNL     1      -4.924  -0.264  -0.729  1.00  0.00     0.227 C 
HETATM    8  O   UNL     1      -4.157  -0.954  -1.452  1.00  0.00    -0.283 OA
HETATM    9  C   UNL     1      -6.195  -0.500  -0.338  1.00  0.00     0.192 C 
HETATM   10  O   UNL     1      -7.003   0.338   0.387  1.00  0.00    -0.355 OA
HETATM   11  C   UNL     1      -6.576   1.704   0.433  1.00  0.00     0.205 C 
HETATM   12  C   UNL     1      -5.109   1.927   0.293  1.00  0.00     0.041 C 
ENDBRANCH   5   6
ENDBRANCH   3   5
ENDBRANCH   1   3
BRANCH   1  13
HETATM   13  C   UNL     1       0.608   0.761  -0.207  1.00  0.00     0.119 A 
HETATM   14  C   UNL     1       1.090  -0.527   0.045  1.00  0.00     0.184 A 
HETATM   15  C   UNL     1       2.462  -0.749   0.196  1.00  0.00     0.160 A 
HETATM   16  F   UNL     1       0.278  -1.592   0.034  1.00  0.00    -0.200 F 
HETATM   17  C   UNL     1       3.375   0.295   0.113  1.00  0.00     0.091 A 
HETATM   18  F   UNL     1       2.924  -1.992   0.392  1.00  0.00    -0.203 F 
HETATM   19  C   UNL     1       2.901   1.571  -0.152  1.00  0.00     0.160 A 
HETATM   20  C   UNL     1       1.539   1.799  -0.332  1.00  0.00     0.184 A 
HETATM   21  F   UNL     1       3.771   2.587  -0.238  1.00  0.00    -0.203 F 
HETATM   22  F   UNL     1       1.114   3.046  -0.594  1.00  0.00    -0.200 F 
ENDBRANCH   1  13
TORSDOF 4
