REMARK  5 active torsions:
REMARK  status: ('A' for Active; 'I' for Inactive)
REMARK    1  A    between atoms: C_7  and  O_8 
REMARK    2  A    between atoms: O_8  and  C_9 
REMARK    3  A    between atoms: C_9  and  C_10 
REMARK    4  A    between atoms: C_10  and  O_11 
REMARK    5  A    between atoms: O_11  and  C_12 
ROOT
HETATM    1  C   UNL     1       1.266   3.689  -0.570  1.00  0.00     0.195 C 
ENDROOT
BRANCH   1   2
HETATM    2  O   UNL     1       2.106   2.940   0.320  1.00  0.00    -0.383 OA
BRANCH   2   3
HETATM    3  C   UNL     1       1.993   1.511   0.199  1.00  0.00     0.129 C 
HETATM    4  C   UNL     1       3.352   0.851  -0.126  1.00  0.00     0.034 C 
HETATM    5  C   UNL     1       4.558   1.598   0.443  1.00  0.00     0.015 C 
HETATM    6  C   UNL     1       3.378  -0.637   0.262  1.00  0.00     0.174 C 
HETATM    7  O   UNL     1       2.808  -0.895   1.547  1.00  0.00    -0.391 OA
HETATM    8  C   UNL     1       1.433  -0.507   1.562  1.00  0.00     0.170 C 
HETATM    9  C   UNL     1       1.368   1.000   1.496  1.00  0.00     0.058 C 
ENDBRANCH   2   3
ENDBRANCH   1   2
BRANCH   1  10
HETATM   10  C   UNL     1      -0.241   3.417  -0.437  1.00  0.00     0.202 C 
BRANCH  10  11
HETATM   11  O   UNL     1      -0.597   2.417  -1.393  1.00  0.00    -0.345 OA
BRANCH  11  12
HETATM   12  C   UNL     1      -1.556   1.497  -1.016  1.00  0.00     0.119 C 
HETATM   13  C   UNL     1      -1.352   0.089  -1.416  1.00  0.00     0.226 C 
HETATM   14  C   UNL     1      -2.197  -0.818  -0.898  1.00  0.00     0.192 C 
HETATM   15  O   UNL     1      -0.363  -0.104  -2.181  1.00  0.00    -0.283 OA
HETATM   16  O   UNL     1      -3.268  -0.584  -0.080  1.00  0.00    -0.355 OA
HETATM   17  C   UNL     1      -3.685   0.780   0.019  1.00  0.00     0.205 C 
HETATM   18  C   UNL     1      -2.668   1.813  -0.334  1.00  0.00     0.040 C 
ENDBRANCH  11  12
ENDBRANCH  10  11
ENDBRANCH   1  10
TORSDOF 5
