REMARK  3 active torsions:
REMARK  status: ('A' for Active; 'I' for Inactive)
REMARK    1  A    between atoms: S_2  and  C_3 
REMARK    2  A    between atoms: C_3  and  C_4 
REMARK    3  A    between atoms: C_4  and  N_5 
ROOT
HETATM    1  N   UNL     1       0.868  -0.891  -0.621  1.00  0.00    -0.274 N 
HETATM    2  N   UNL     1       0.589  -2.197  -0.387  1.00  0.00    -0.185 NA
HETATM    3  C   UNL     1      -0.513  -2.194   0.342  1.00  0.00     0.141 A 
HETATM    4  C   UNL     1      -0.919  -0.886   0.604  1.00  0.00     0.047 A 
HETATM    5  C   UNL     1       0.000   0.000   0.000  1.00  0.00     0.028 A 
HETATM    6  C   UNL     1       0.000   1.000   0.000  1.00  0.00     0.070 C 
ENDROOT
BRANCH   1   7
HETATM    7  C   UNL     1       1.954  -0.685  -1.560  1.00  0.00     0.161 C 
BRANCH   7   8
HETATM    8  C   UNL     1       2.462   0.715  -1.871  1.00  0.00     0.095 C 
BRANCH   8   9
HETATM    9  S   UNL     1       3.286   1.655  -0.533  1.00  0.00    -0.172 SA
HETATM   10  C   UNL     1       4.314   0.371   0.217  1.00  0.00     0.089 C 
ENDBRANCH   8   9
ENDBRANCH   7   8
ENDBRANCH   1   7
TORSDOF 3
