REMARK  4 active torsions:
REMARK  status: ('A' for Active; 'I' for Inactive)
REMARK    1  A    between atoms: N_4  and  C_5 
REMARK    2  A    between atoms: C_5  and  C_6 
REMARK    3  A    between atoms: C_11  and  C_12 
REMARK    4  A    between atoms: C_12  and  O_14 
ROOT
HETATM    1  C   UNL     1      -4.496   0.893  -0.137  1.00  0.00    -0.022 A 
HETATM    2  C   UNL     1      -4.573  -0.467  -0.505  1.00  0.00     0.010 A 
HETATM    3  C   UNL     1      -5.794  -1.140  -0.577  1.00  0.00     0.001 A 
HETATM    4  C   UNL     1      -6.976  -0.467  -0.309  1.00  0.00     0.001 A 
HETATM    5  C   UNL     1      -6.940   0.887   0.010  1.00  0.00     0.019 A 
HETATM    6  C   UNL     1      -5.715   1.580   0.093  1.00  0.00     0.045 A 
ENDROOT
BRANCH   1   7
HETATM    7  C   UNL     1      -3.162   1.616   0.020  1.00  0.00     0.185 C 
BRANCH   7   8
HETATM    8  N   UNL     1      -1.976   0.797  -0.202  1.00  0.00    -0.279 N 
HETATM    9  C   UNL     1      -1.512  -0.251   0.544  1.00  0.00     0.136 A 
HETATM   10  C   UNL     1      -0.460  -0.741  -0.197  1.00  0.00     0.065 A 
HETATM   11  C   UNL     1       0.353  -1.956  -0.004  1.00  0.00     0.073 C 
HETATM   12  N   UNL     1      -0.256   0.073  -1.278  1.00  0.00    -0.164 NA
HETATM   13  N   UNL     1      -1.182   1.021  -1.265  1.00  0.00     0.004 NA
ENDBRANCH   7   8
ENDBRANCH   1   7
BRANCH   6  14
HETATM   14  C   UNL     1      -5.740   3.037   0.415  1.00  0.00     0.176 C 
HETATM   15  O   UNL     1      -4.780   3.737   0.686  1.00  0.00    -0.646 OA
BRANCH  14  16
HETATM   16  O   UNL     1      -6.975   3.565   0.355  1.00  0.00    -0.773 OA
HETATM   17  H   UNL     1      -6.842   4.518   0.545  1.00  0.00     0.167 HD
ENDBRANCH  14  16
ENDBRANCH   6  14
TORSDOF 4
