REMARK  2 active torsions:
REMARK  status: ('A' for Active; 'I' for Inactive)
REMARK    1  A    between atoms: S_2  and  C_3 
REMARK    2  A    between atoms: C_3  and  C_5 
ROOT
HETATM    1  C   UNL     1       0.733  -0.531   0.304  1.00  0.00     0.148 A 
HETATM    2  C   UNL     1      -0.338  -0.978   1.050  1.00  0.00     0.145 A 
HETATM    3  N   UNL     1      -1.146  -1.584   0.142  1.00  0.00    -0.287 N 
HETATM    4  C   UNL     1      -2.341  -2.344   0.400  1.00  0.00     0.174 C 
HETATM    5  N   UNL     1      -0.652  -1.484  -1.101  1.00  0.00     0.004 NA
HETATM    6  N   UNL     1       0.505  -0.840  -1.017  1.00  0.00    -0.154 NA
ENDROOT
BRANCH   1   7
HETATM    7  C   UNL     1       1.936   0.104   0.820  1.00  0.00     0.239 C 
HETATM    8  O   UNL     1       2.020   0.557   1.957  1.00  0.00    -0.278 OA
BRANCH   7   9
HETATM    9  S   UNL     1       3.329   0.106  -0.251  1.00  0.00    -0.090 SA
HETATM   10  C   UNL     1       3.555  -1.682  -0.416  1.00  0.00     0.099 C 
ENDBRANCH   7   9
ENDBRANCH   1   7
TORSDOF 2
