REMARK  2 active torsions:
REMARK  status: ('A' for Active; 'I' for Inactive)
REMARK    1  A    between atoms: S_2  and  C_3 
REMARK    2  A    between atoms: C_3  and  C_4 
ROOT
HETATM    1  C   UNL     1      -0.267  -0.494  -0.384  1.00  0.00     0.188 A 
HETATM    2  N   UNL     1      -0.814  -1.745   0.099  1.00  0.00    -0.329 N 
HETATM    3  C   UNL     1      -2.137  -1.633   0.460  1.00  0.00     0.323 A 
HETATM    4  O   UNL     1      -2.834  -2.553   0.845  1.00  0.00    -0.247 OA
HETATM    5  N   UNL     1      -2.519  -0.350   0.291  1.00  0.00    -0.278 N 
HETATM    6  C   UNL     1      -1.509   0.391  -0.236  1.00  0.00     0.249 A 
HETATM    7  O   UNL     1      -1.590   1.572  -0.539  1.00  0.00    -0.271 OA
HETATM    8  H   UNL     1      -0.376  -2.654   0.063  1.00  0.00     0.165 HD
HETATM    9  H   UNL     1      -3.451  -0.010   0.461  1.00  0.00     0.173 HD
ENDROOT
BRANCH   1  10
HETATM   10  C   UNL     1       0.867   0.062   0.474  1.00  0.00     0.108 C 
BRANCH  10  11
HETATM   11  S   UNL     1       2.560  -0.430  -0.037  1.00  0.00    -0.171 SA
HETATM   12  C   UNL     1       2.401  -2.226  -0.138  1.00  0.00     0.089 C 
ENDBRANCH  10  11
ENDBRANCH   1  10
TORSDOF 2
