REMARK  6 active torsions:
REMARK  status: ('A' for Active; 'I' for Inactive)
REMARK    1  A    between atoms: C_6  and  N_7 
REMARK    2  A    between atoms: N_7  and  C_8 
REMARK    3  A    between atoms: C_8  and  C_9 
REMARK    4  A    between atoms: C_9  and  C_10 
REMARK    5  A    between atoms: C_10  and  S_11 
REMARK    6  A    between atoms: S_11  and  C_12 
ROOT
HETATM    1  N   UNL     1       1.253   2.519  -0.096  1.00  0.00    -0.276 NA
HETATM    2  H   UNL     1       1.720   2.169   0.738  1.00  0.00     0.129 HD
ENDROOT
BRANCH   1   3
HETATM    3  C   UNL     1       0.048   1.803  -0.104  1.00  0.00     0.126 A 
HETATM    4  N   UNL     1      -1.151   2.376   0.044  1.00  0.00    -0.139 NA
HETATM    5  N   UNL     1      -2.221   1.583   0.207  1.00  0.00    -0.161 NA
HETATM    6  C   UNL     1      -2.051   0.229   0.202  1.00  0.00     0.147 A 
HETATM    7  C   UNL     1      -0.866  -0.500   0.000  1.00  0.00    -0.040 A 
HETATM    8  C   UNL     1      -0.866  -1.500   0.000  1.00  0.00     0.050 C 
HETATM    9  C   UNL     1       0.187   0.409  -0.155  1.00  0.00     0.054 A 
ENDBRANCH   1   3
BRANCH   1  10
HETATM   10  C   UNL     1       1.200   3.974  -0.080  1.00  0.00     0.094 C 
BRANCH  10  11
HETATM   11  C   UNL     1       2.640   4.548  -0.077  1.00  0.00     0.025 C 
BRANCH  11  12
HETATM   12  C   UNL     1       3.716   3.467   0.044  1.00  0.00     0.082 C 
BRANCH  12  13
HETATM   13  S   UNL     1       5.420   4.063   0.068  1.00  0.00    -0.101 SA
BRANCH  13  14
HETATM   14  C   UNL     1       6.175   2.470   0.193  1.00  0.00     0.304 C 
HETATM   15  O   UNL     1       7.390   2.341   0.269  1.00  0.00    -0.295 OA
ENDBRANCH  13  14
ENDBRANCH  12  13
ENDBRANCH  11  12
ENDBRANCH  10  11
ENDBRANCH   1  10
TORSDOF 6
