REMARK  5 active torsions:
REMARK  status: ('A' for Active; 'I' for Inactive)
REMARK    1  A    between atoms: S_2  and  C_3 
REMARK    2  A    between atoms: C_3  and  C_4 
REMARK    3  A    between atoms: C_4  and  C_5 
REMARK    4  A    between atoms: C_5  and  C_6 
REMARK    5  A    between atoms: C_6  and  S_8 
ROOT
HETATM    1  C   UNL     1       0.769   2.662  -1.210  1.00  0.00     0.091 C 
ENDROOT
BRANCH   1   2
HETATM    2  C   UNL     1       1.773   1.517  -1.094  1.00  0.00     0.016 C 
BRANCH   2   3
HETATM    3  C   UNL     1       3.208   1.965  -1.363  1.00  0.00     0.039 C 
BRANCH   3   4
HETATM    4  S   UNL     1       4.330   1.500   0.000  1.00  0.00    -0.294 SA
HETATM    5  C   UNL     1       4.330   0.500   0.000  1.00  0.00     0.247 C 
ENDBRANCH   3   4
ENDBRANCH   2   3
ENDBRANCH   1   2
BRANCH   1   6
HETATM    6  C   UNL     1      -0.640   2.163  -0.978  1.00  0.00     0.185 C 
HETATM    7  O   UNL     1      -1.470   2.067  -1.873  1.00  0.00    -0.286 OA
BRANCH   6   8
HETATM    8  S   UNL     1      -1.009   1.657   0.667  1.00  0.00    -0.097 SA
HETATM    9  C   UNL     1      -1.058  -0.124   0.351  1.00  0.00     0.098 C 
ENDBRANCH   6   8
ENDBRANCH   1   6
TORSDOF 5
