REMARK  5 active torsions:
REMARK  status: ('A' for Active; 'I' for Inactive)
REMARK    1  A    between atoms: C_2  and  N_3 
REMARK    2  A    between atoms: N_3  and  C_4 
REMARK    3  A    between atoms: C_4  and  C_5 
REMARK    4  A    between atoms: C_5  and  C_6 
REMARK    5  A    between atoms: C_6  and  S_7 
ROOT
HETATM    1  C   UNL     1       2.596  -0.677  -0.062  1.00  0.00     0.122 C 
ENDROOT
BRANCH   1   2
HETATM    2  N   UNL     1       3.834   0.068   0.030  1.00  0.00    -0.368 N 
HETATM    3  H   UNL     1       3.817   1.080   0.067  1.00  0.00     0.161 HD
BRANCH   2   4
HETATM    4  C   UNL     1       5.048  -0.568   0.008  1.00  0.00     0.348 C 
HETATM    5  O   UNL     1       5.215  -1.777  -0.081  1.00  0.00    -0.284 OA
ENDBRANCH   2   4
ENDBRANCH   1   2
BRANCH   1   6
HETATM    6  C   UNL     1       1.384   0.230   0.114  1.00  0.00     0.029 C 
BRANCH   6   7
HETATM    7  C   UNL     1       0.091  -0.577   0.089  1.00  0.00     0.072 C 
BRANCH   7   8
HETATM    8  S   UNL     1      -1.327   0.482   0.501  1.00  0.00    -0.182 SA
HETATM    9  H   UNL     1      -1.093   1.433  -0.415  1.00  0.00     0.101 HD
ENDBRANCH   7   8
ENDBRANCH   6   7
ENDBRANCH   1   6
TORSDOF 5
