REMARK  3 active torsions:
REMARK  status: ('A' for Active; 'I' for Inactive)
REMARK    1  A    between atoms: N_4  and  C_5 
REMARK    2  A    between atoms: C_5  and  C_6 
REMARK    3  A    between atoms: C_6  and  N_7 
ROOT
HETATM    1  N   UNL     1      -5.155   1.460  -0.298  1.00  0.00    -0.322 N 
HETATM    2  C   UNL     1      -6.299   0.687  -0.165  1.00  0.00     0.095 C 
HETATM    3  C   UNL     1      -7.531   1.218  -0.119  1.00  0.00     0.029 C 
HETATM    4  C   UNL     1      -7.670   2.674  -0.125  1.00  0.00    -0.019 A 
HETATM    5  C   UNL     1      -8.899   3.289   0.120  1.00  0.00     0.012 A 
HETATM    6  C   UNL     1      -8.982   4.685   0.190  1.00  0.00     0.001 A 
HETATM    7  C   UNL     1      -7.847   5.472  -0.002  1.00  0.00     0.001 A 
HETATM    8  C   UNL     1      -6.624   4.871  -0.279  1.00  0.00     0.018 A 
HETATM    9  C   UNL     1      -6.545   3.476  -0.339  1.00  0.00     0.042 A 
HETATM   10  C   UNL     1      -5.230   2.831  -0.558  1.00  0.00     0.258 C 
HETATM   11  O   UNL     1      -4.282   3.526  -0.909  1.00  0.00    -0.267 OA
ENDROOT
BRANCH   1  12
HETATM   12  C   UNL     1      -3.852   0.793  -0.322  1.00  0.00     0.153 C 
BRANCH  12  13
HETATM   13  C   UNL     1      -2.712   1.550   0.381  1.00  0.00     0.166 C 
BRANCH  13  14
HETATM   14  N   UNL     1      -1.501   0.758   0.455  1.00  0.00    -0.282 N 
HETATM   15  C   UNL     1      -1.392  -0.582   0.683  1.00  0.00     0.136 C 
HETATM   16  C   UNL     1      -0.185  -0.903   0.102  1.00  0.00     0.065 C 
HETATM   17  C   UNL     1       0.357  -2.227  -0.241  1.00  0.00     0.073 C 
HETATM   18  N   UNL     1       0.470   0.250  -0.235  1.00  0.00    -0.164 NA
HETATM   19  N   UNL     1      -0.337   1.270   0.020  1.00  0.00     0.004 NA
ENDBRANCH  13  14
ENDBRANCH  12  13
ENDBRANCH   1  12
TORSDOF 3
