REMARK  13 active torsions:
REMARK  status: ('A' for Active; 'I' for Inactive)
REMARK    1  A    between atoms: C_2  and  C_4 
REMARK    2  A    between atoms: C_4  and  C_5 
REMARK    3  A    between atoms: C_5  and  C_7 
REMARK    4  A    between atoms: C_7  and  O_8 
REMARK    5  A    between atoms: C_7  and  C_9 
REMARK    6  A    between atoms: C_9  and  C_11 
REMARK    7  A    between atoms: C_11  and  C_12 
REMARK    8  A    between atoms: C_11  and  C_24 
REMARK    9  A    between atoms: C_12  and  C_13 
REMARK   10  A    between atoms: C_13  and  N_14 
REMARK   11  A    between atoms: O_18  and  C_19 
REMARK   12  A    between atoms: C_24  and  C_26 
REMARK   13  A    between atoms: C_31  and  O_32 
ROOT
HETATM    1  C   UNL     1       2.965  -3.510   0.991  1.00  0.00     0.133 C 
ENDROOT
BRANCH   1   2
HETATM    2  C   UNL     1       3.598  -2.500   0.000  1.00  0.00     0.174 C 
HETATM    3  O   UNL     1       4.364  -3.175  -0.744  1.00  0.00    -0.294 OA
BRANCH   2   4
HETATM    4  C   UNL     1       3.598  -1.500   0.000  1.00  0.00     0.258 C 
BRANCH   4   5
HETATM    5  C   UNL     1       4.607  -1.043   1.230  1.00  0.00     0.169 C 
HETATM    6  O   UNL     1       4.880  -1.773   2.190  1.00  0.00    -0.294 OA
BRANCH   5   7
HETATM    7  C   UNL     1       5.007   0.434   1.318  1.00  0.00     0.159 C 
BRANCH   7   8
HETATM    8  C   UNL     1       5.647   0.953   0.065  1.00  0.00     0.130 C 
HETATM    9  C   UNL     1       6.868   0.224  -0.426  1.00  0.00     0.091 C 
HETATM   10  O   UNL     1       5.221   1.952  -0.514  1.00  0.00    -0.298 OA
ENDBRANCH   7   8
ENDBRANCH   5   7
ENDBRANCH   4   5
BRANCH   4  11
HETATM   11  O   UNL     1       3.980  -1.207  -1.451  1.00  0.00    -0.380 OA
HETATM   12  H   UNL     1       3.242  -0.670  -1.804  1.00  0.00     0.211 HD
ENDBRANCH   4  11
ENDBRANCH   2   4
ENDBRANCH   1   2
BRANCH   1  13
HETATM   13  C   UNL     1       1.579  -3.206   1.530  1.00  0.00     0.020 C 
BRANCH  13  14
HETATM   14  C   UNL     1       1.158  -1.765   1.516  1.00  0.00     0.001 C 
BRANCH  14  15
HETATM   15  N   UNL     1       1.000  -1.000   0.000  1.00  0.00     0.000 N 
HETATM   16  C   UNL     1       0.473  -2.188  -0.909  1.00  0.00     0.000 C 
HETATM   17  S   UNL     1       1.000   0.000   0.000  1.00  0.00    -0.073 SA
HETATM   18  O   UNL     1       2.000   0.000   0.000  1.00  0.00     0.000 OA
HETATM   19  O   UNL     1       1.000   1.000   0.000  1.00  0.00     0.000 OA
HETATM   20  C   UNL     1       0.000   0.000   0.000  1.00  0.00     0.103 A 
HETATM   21  C   UNL     1      -0.972   0.207  -1.080  1.00  0.00     0.142 C 
HETATM   22  C   UNL     1      -1.084   0.106   1.109  1.00  0.00     0.027 C 
HETATM   23  O   UNL     1      -2.275   0.212  -0.748  1.00  0.00    -0.337 OA
HETATM   24  C   UNL     1      -2.349   0.162   0.590  1.00  0.00     0.139 C 
ENDBRANCH  14  15
ENDBRANCH  13  14
ENDBRANCH   1  13
BRANCH   1  25
HETATM   25  C   UNL     1       2.956  -4.961   0.425  1.00  0.00     0.173 C 
HETATM   26  O   UNL     1       1.920  -5.451  -0.043  1.00  0.00    -0.291 OA
BRANCH  25  27
HETATM   27  C   UNL     1       4.197  -5.830   0.419  1.00  0.00     0.044 A 
HETATM   28  C   UNL     1       4.122  -7.150  -0.051  1.00  0.00     0.079 A 
HETATM   29  C   UNL     1       5.255  -7.955  -0.132  1.00  0.00     0.037 A 
HETATM   30  C   UNL     1       6.505  -7.450   0.241  1.00  0.00     0.003 A 
HETATM   31  C   UNL     1       6.603  -6.151   0.716  1.00  0.00     0.001 A 
HETATM   32  C   UNL     1       5.450  -5.342   0.821  1.00  0.00     0.018 A 
BRANCH  28  33
HETATM   33  O   UNL     1       2.956  -7.742  -0.464  1.00  0.00    -0.360 OA
HETATM   34  H   UNL     1       2.257  -7.051  -0.457  1.00  0.00     0.217 HD
ENDBRANCH  28  33
ENDBRANCH  25  27
ENDBRANCH   1  25
TORSDOF 13
