REMARK  5 active torsions:
REMARK  status: ('A' for Active; 'I' for Inactive)
REMARK    1  A    between atoms: O_2  and  C_3 
REMARK    2  A    between atoms: C_3  and  C_4 
REMARK    3  A    between atoms: C_4  and  C_5 
REMARK    4  A    between atoms: C_4  and  O_8 
REMARK    5  A    between atoms: C_5  and  S_6 
ROOT
HETATM    1  C   UNL     1       0.455   1.929   0.209  1.00  0.00     0.153 C 
ENDROOT
BRANCH   1   2
HETATM    2  C   UNL     1       1.772   2.370   0.726  1.00  0.00     0.199 C 
BRANCH   2   3
HETATM    3  O   UNL     1       2.598   1.500   0.000  1.00  0.00    -0.393 OA
HETATM    4  C   UNL     1       2.598   0.500   0.000  1.00  0.00     0.201 C 
ENDBRANCH   2   3
ENDBRANCH   1   2
BRANCH   1   5
HETATM    5  C   UNL     1      -0.648   2.316   1.228  1.00  0.00     0.107 C 
BRANCH   5   6
HETATM    6  S   UNL     1      -2.375   1.767   0.919  1.00  0.00    -0.171 SA
HETATM    7  C   UNL     1      -2.872   2.886  -0.407  1.00  0.00     0.089 C 
ENDBRANCH   5   6
ENDBRANCH   1   5
BRANCH   1   8
HETATM    8  O   UNL     1       0.866   0.500   0.000  1.00  0.00    -0.388 OA
HETATM    9  C   UNL     1       0.000   0.000   0.000  1.00  0.00     0.202 C 
ENDBRANCH   1   8
TORSDOF 5
