REMARK  7 active torsions:
REMARK  status: ('A' for Active; 'I' for Inactive)
REMARK    1  A    between atoms: S_2  and  C_3 
REMARK    2  A    between atoms: C_3  and  C_4 
REMARK    3  A    between atoms: C_4  and  O_5 
REMARK    4  A    between atoms: C_4  and  C_6 
REMARK    5  A    between atoms: C_6  and  C_7 
REMARK    6  A    between atoms: C_7  and  N_8 
REMARK    7  A    between atoms: C_10  and  C_11 
ROOT
HETATM    1  N   UNL     1      -2.682  -0.987   0.368  1.00  0.00    -0.283 N 
HETATM    2  C   UNL     1      -3.646  -0.205  -0.177  1.00  0.00     0.141 A 
HETATM    3  C   UNL     1      -3.879   0.741   0.792  1.00  0.00     0.101 A 
HETATM    4  N   UNL     1      -3.118   0.468   1.894  1.00  0.00    -0.158 NA
HETATM    5  N   UNL     1      -2.420  -0.634   1.641  1.00  0.00     0.005 NA
ENDROOT
BRANCH   1   6
HETATM    6  C   UNL     1      -1.996  -2.082  -0.275  1.00  0.00     0.148 C 
BRANCH   6   7
HETATM    7  C   UNL     1      -0.479  -2.108  -0.100  1.00  0.00     0.054 C 
BRANCH   7   8
HETATM    8  C   UNL     1       0.315  -0.982  -0.788  1.00  0.00     0.129 C 
BRANCH   8   9
HETATM    9  C   UNL     1       1.649  -0.685  -0.067  1.00  0.00     0.105 C 
BRANCH   9  10
HETATM   10  S   UNL     1       3.066  -1.707  -0.608  1.00  0.00    -0.171 SA
HETATM   11  C   UNL     1       2.647  -3.311   0.115  1.00  0.00     0.089 C 
ENDBRANCH   9  10
ENDBRANCH   8   9
BRANCH   8  12
HETATM   12  O   UNL     1      -0.476   0.204  -0.845  1.00  0.00    -0.395 OA
HETATM   13  H   UNL     1       0.090   0.954  -1.099  1.00  0.00     0.210 HD
ENDBRANCH   8  12
ENDBRANCH   7   8
ENDBRANCH   6   7
ENDBRANCH   1   6
BRANCH   3  14
HETATM   14  C   UNL     1      -4.744   1.878   0.615  1.00  0.00    -0.002 A 
HETATM   15  C   UNL     1      -4.206   3.166   0.619  1.00  0.00     0.056 A 
HETATM   16  C   UNL     1      -5.028   4.245   0.321  1.00  0.00     0.117 A 
HETATM   17  C   UNL     1      -6.379   4.066   0.036  1.00  0.00     0.042 A 
HETATM   18  F   UNL     1      -4.507   5.479   0.280  1.00  0.00    -0.206 F 
HETATM   19  C   UNL     1      -6.922   2.785   0.058  1.00  0.00     0.004 A 
HETATM   20  C   UNL     1      -6.107   1.689   0.342  1.00  0.00     0.014 A 
ENDBRANCH   3  14
TORSDOF 7
