REMARK  5 active torsions:
REMARK  status: ('A' for Active; 'I' for Inactive)
REMARK    1  A    between atoms: N_1  and  C_2 
REMARK    2  A    between atoms: C_2  and  C_3 
REMARK    3  A    between atoms: C_3  and  C_4 
REMARK    4  A    between atoms: C_4  and  O_5 
REMARK    5  A    between atoms: O_5  and  C_6 
ROOT
HETATM    1  C   UNL     1       0.721   0.096  -0.199  1.00  0.00     0.157 A 
HETATM    2  C   UNL     1      -0.078  -1.141  -0.548  1.00  0.00     0.044 A 
HETATM    3  C   UNL     1      -0.324  -0.440   0.754  1.00  0.00     0.044 A 
ENDROOT
BRANCH   1   4
HETATM    4  N   UNL     1       0.389   1.329  -0.936  1.00  0.00     0.088 N 
HETATM    5  H   UNL     1       0.341   2.125  -0.300  1.00  0.00     0.313 HD
HETATM    6  H   UNL     1      -0.540   1.268  -1.353  1.00  0.00     0.313 HD
ENDBRANCH   1   4
BRANCH   1   7
HETATM    7  C   UNL     1       2.191  -0.139   0.118  1.00  0.00     0.068 C 
BRANCH   7   8
HETATM    8  C   UNL     1       2.989   1.139   0.352  1.00  0.00     0.180 C 
BRANCH   8   9
HETATM    9  O   UNL     1       4.349   0.788   0.646  1.00  0.00    -0.328 OA
BRANCH   9  10
HETATM   10  C   UNL     1       5.257   1.772   0.442  1.00  0.00     0.398 C 
HETATM   11  O   UNL     1       6.459   1.628   0.595  1.00  0.00    -0.276 OA
ENDBRANCH   9  10
ENDBRANCH   8   9
ENDBRANCH   7   8
ENDBRANCH   1   7
TORSDOF 5
