REMARK  5 active torsions:
REMARK  status: ('A' for Active; 'I' for Inactive)
REMARK    1  A    between atoms: C_2  and  C_3 
REMARK    2  A    between atoms: C_2  and  O_10 
REMARK    3  A    between atoms: C_3  and  C_4 
REMARK    4  A    between atoms: C_7  and  O_8 
REMARK    5  A    between atoms: O_10  and  C_11 
ROOT
HETATM    1  O   UNL     1      -0.089  -3.661  -0.867  1.00  0.00    -0.264 OA
HETATM    2  C   UNL     1       0.780  -3.099  -0.204  1.00  0.00     0.271 C 
ENDROOT
BRANCH   2   3
HETATM    3  C   UNL     1       2.117  -3.750   0.063  1.00  0.00     0.190 C 
BRANCH   3   4
HETATM    4  C   UNL     1       3.271  -2.816  -0.066  1.00  0.00     0.115 A 
HETATM    5  N   UNL     1       4.574  -3.252   0.037  1.00  0.00    -0.324 N 
HETATM    6  C   UNL     1       5.398  -2.160  -0.053  1.00  0.00     0.159 A 
HETATM    7  H   UNL     1       4.860  -4.211   0.174  1.00  0.00     0.169 HD
HETATM    8  C   UNL     1       4.546  -1.093  -0.225  1.00  0.00     0.174 A 
HETATM    9  N   UNL     1       3.244  -1.517  -0.271  1.00  0.00    -0.243 NA
BRANCH   6  10
HETATM   10  O   UNL     1       6.719  -2.222   0.030  1.00  0.00    -0.345 OA
HETATM   11  H   UNL     1       7.009  -3.145   0.133  1.00  0.00     0.219 HD
ENDBRANCH   6  10
ENDBRANCH   3   4
ENDBRANCH   2   3
BRANCH   2  12
HETATM   12  O   UNL     1       0.647  -1.907   0.446  1.00  0.00    -0.273 OA
BRANCH  12  13
HETATM   13  C   UNL     1      -0.411  -1.008   0.203  1.00  0.00     0.146 C 
HETATM   14  C   UNL     1      -0.147   0.430   0.508  1.00  0.00     0.186 C 
HETATM   15  C   UNL     1      -1.113   1.426  -0.069  1.00  0.00     0.112 C 
HETATM   16  O   UNL     1       0.837   0.786   1.151  1.00  0.00    -0.290 OA
HETATM   17  C   UNL     1      -2.501   0.854   0.106  1.00  0.00     0.182 C 
HETATM   18  O   UNL     1      -2.648  -0.411  -0.544  1.00  0.00    -0.360 OA
HETATM   19  C   UNL     1      -1.618  -1.292  -0.313  1.00  0.00     0.175 C 
ENDBRANCH  12  13
ENDBRANCH   2  12
TORSDOF 5
