REMARK  7 active torsions:
REMARK  status: ('A' for Active; 'I' for Inactive)
REMARK    1  A    between atoms: S_2  and  C_3 
REMARK    2  A    between atoms: C_3  and  C_4 
REMARK    3  A    between atoms: C_4  and  O_5 
REMARK    4  A    between atoms: C_4  and  C_6 
REMARK    5  A    between atoms: C_6  and  O_7 
REMARK    6  A    between atoms: O_7  and  C_8 
REMARK    7  A    between atoms: C_8  and  C_9 
ROOT
HETATM    1  C   UNL     1       1.688  -0.552   0.477  1.00  0.00    -0.032 A 
HETATM    2  C   UNL     1       1.817   0.852   0.408  1.00  0.00     0.012 A 
HETATM    3  C   UNL     1       0.682   1.669   0.360  1.00  0.00     0.040 A 
HETATM    4  C   UNL     1      -0.557   1.069   0.369  1.00  0.00     0.105 A 
HETATM    5  C   UNL     1      -0.689  -0.297   0.470  1.00  0.00     0.105 A 
HETATM    6  C   UNL     1       0.404  -1.127   0.542  1.00  0.00     0.049 A 
HETATM    7  O   UNL     1      -1.985  -0.708   0.417  1.00  0.00    -0.323 OA
HETATM    8  C   UNL     1      -2.648   0.555   0.184  1.00  0.00     0.352 A 
HETATM    9  O   UNL     1      -1.758   1.690   0.226  1.00  0.00    -0.323 OA
ENDROOT
BRANCH   1  10
HETATM   10  C   UNL     1       2.840  -1.478   0.154  1.00  0.00     0.206 C 
BRANCH  10  11
HETATM   11  O   UNL     1       4.126  -1.161   0.685  1.00  0.00    -0.384 OA
BRANCH  11  12
HETATM   12  C   UNL     1       5.281  -1.809   0.000  1.00  0.00     0.200 C 
BRANCH  12  13
HETATM   13  C   UNL     1       5.281  -2.809   0.000  1.00  0.00     0.151 C 
BRANCH  13  14
HETATM   14  C   UNL     1       4.539  -3.397  -1.392  1.00  0.00     0.107 C 
BRANCH  14  15
HETATM   15  S   UNL     1       3.651  -5.092  -1.099  1.00  0.00    -0.171 SA
HETATM   16  C   UNL     1       5.008  -6.100  -0.355  1.00  0.00     0.089 C 
ENDBRANCH  14  15
ENDBRANCH  13  14
BRANCH  13  17
HETATM   17  O   UNL     1       6.792  -3.023  -0.344  1.00  0.00    -0.393 OA
HETATM   18  H   UNL     1       7.254  -3.164   0.516  1.00  0.00     0.210 HD
ENDBRANCH  13  17
ENDBRANCH  12  13
ENDBRANCH  11  12
ENDBRANCH  10  11
ENDBRANCH   1  10
TORSDOF 7
