REMARK  4 active torsions:
REMARK  status: ('A' for Active; 'I' for Inactive)
REMARK    1  A    between atoms: C_2  and  C_3 
REMARK    2  A    between atoms: C_6  and  O_8 
REMARK    3  A    between atoms: O_8  and  C_9 
REMARK    4  A    between atoms: O_16  and  C_17 
ROOT
HETATM    1  C   UNL     1       1.866   1.500   0.000  1.00  0.00     0.017 A 
HETATM    2  C   UNL     1       1.866   2.500   0.000  1.00  0.00     0.046 A 
HETATM    3  O   UNL     1       2.866   2.500   0.000  1.00  0.00     0.000 OA
HETATM    4  C   UNL     1       1.866   3.500   0.000  1.00  0.00     0.215 A 
HETATM    5  O   UNL     1       2.357   4.191   1.104  1.00  0.00    -0.196 OA
HETATM    6  C   UNL     1       0.866   2.500   0.000  1.00  0.00     0.033 A 
HETATM    7  C   UNL     1       0.866   3.500   0.000  1.00  0.00     0.011 A 
HETATM    8  C   UNL     1       0.098   4.260  -1.573  1.00  0.00     0.006 C 
HETATM    9  C   UNL     1      -0.134   2.500   0.000  1.00  0.00     0.011 A 
HETATM   10  C   UNL     1      -1.467   3.404   0.716  1.00  0.00     0.006 C 
HETATM   11  O   UNL     1       0.866   1.500   0.000  1.00  0.00     0.000 OA
HETATM   12  H   UNL     1       3.451   2.685  -0.784  1.00  0.00     0.000 HD
ENDROOT
BRANCH  11  13
HETATM   13  C   UNL     1       0.190   0.424   1.144  1.00  0.00     0.047 C 
HETATM   14  C   UNL     1       0.232  -1.054   0.897  1.00  0.00     0.164 C 
HETATM   15  C   UNL     1      -0.913  -1.869   1.437  1.00  0.00     0.110 C 
HETATM   16  O   UNL     1       1.174  -1.593   0.328  1.00  0.00    -0.292 OA
HETATM   17  C   UNL     1      -1.954  -0.946   2.027  1.00  0.00     0.182 C 
HETATM   18  O   UNL     1      -1.349  -0.015   2.947  1.00  0.00    -0.362 OA
HETATM   19  C   UNL     1      -0.462   0.808   2.274  1.00  0.00     0.150 C 
ENDBRANCH  11  13
BRANCH   1  20
HETATM   20  C   UNL     1       1.829   0.542  -1.626  1.00  0.00    -0.004 C 
HETATM   21  C   UNL     1       0.461   0.145  -2.207  1.00  0.00     0.005 C 
ENDBRANCH   1  20
BRANCH   4  22
HETATM   22  O   UNL     1       2.507   4.332  -1.216  1.00  0.00    -0.352 OA
BRANCH  22  23
HETATM   23  C   UNL     1       2.561   5.775  -0.943  1.00  0.00     0.167 C 
HETATM   24  C   UNL     1       3.949   6.369  -1.016  1.00  0.00     0.033 C 
ENDBRANCH  22  23
ENDBRANCH   4  22
TORSDOF 4
