REMARK  3 active torsions:
REMARK  status: ('A' for Active; 'I' for Inactive)
REMARK    1  A    between atoms: C_2  and  N_3 
REMARK    2  A    between atoms: N_3  and  C_4 
REMARK    3  A    between atoms: N_3  and  C_6 
ROOT
HETATM    1  C   UNL     1       0.867  -1.566  -0.068  1.00  0.00     0.035 C 
HETATM    2  C   UNL     1       2.063  -0.645  -0.553  1.00  0.00     0.036 C 
HETATM    3  C   UNL     1       2.553  -2.160  -0.666  1.00  0.00    -0.007 C 
HETATM    4  C   UNL     1       1.752  -2.649   0.649  1.00  0.00     0.036 C 
HETATM    5  C   UNL     1       1.159  -2.372  -1.370  1.00  0.00     0.036 C 
ENDROOT
BRANCH   1   6
HETATM    6  N   UNL     1      -0.456  -1.087   0.248  1.00  0.00    -0.350 N 
BRANCH   6   7
HETATM    7  C   UNL     1      -0.711   0.311  -0.107  1.00  0.00     0.121 C 
HETATM    8  C   UNL     1      -2.003   0.958   0.350  1.00  0.00     0.026 C 
ENDBRANCH   6   7
BRANCH   6   9
HETATM    9  C   UNL     1      -1.478  -1.996   0.498  1.00  0.00     0.351 C 
HETATM   10  O   UNL     1      -1.339  -3.209   0.613  1.00  0.00    -0.284 OA
ENDBRANCH   6   9
ENDBRANCH   1   6
TORSDOF 3
