REMARK  2 active torsions:
REMARK  status: ('A' for Active; 'I' for Inactive)
REMARK    1  A    between atoms: S_2  and  C_3 
REMARK    2  A    between atoms: C_3  and  C_5 
ROOT
HETATM    1  C   UNL     1       0.007   0.169  -0.279  1.00  0.00     0.325 A 
HETATM    2  C   UNL     1      -0.705  -1.073   0.204  1.00  0.00     0.315 A 
HETATM    3  N   UNL     1      -1.282   0.237   0.438  1.00  0.00     0.100 N 
HETATM    4  H   UNL     1      -2.038   0.451  -0.215  1.00  0.00     0.317 HD
ENDROOT
BRANCH   1   5
HETATM    5  C   UNL     1       1.200   0.695   0.447  1.00  0.00     0.190 C 
HETATM    6  O   UNL     1       1.134   1.629   1.233  1.00  0.00    -0.286 OA
BRANCH   5   7
HETATM    7  S   UNL     1       2.732   0.000   0.000  1.00  0.00    -0.230 SA
HETATM    8  C   UNL     1       2.732  -1.000   0.000  1.00  0.00     0.270 C 
ENDBRANCH   5   7
ENDBRANCH   1   5
TORSDOF 2
