REMARK  6 active torsions:
REMARK  status: ('A' for Active; 'I' for Inactive)
REMARK    1  A    between atoms: C_2  and  C_3 
REMARK    2  A    between atoms: C_3  and  C_4 
REMARK    3  A    between atoms: C_4  and  C_5 
REMARK    4  A    between atoms: C_5  and  O_6 
REMARK    5  A    between atoms: C_5  and  C_9 
REMARK    6  A    between atoms: O_6  and  C_7 
ROOT
HETATM    1  C   UNL     1       1.344   1.778   0.084  1.00  0.00     0.159 C 
ENDROOT
BRANCH   1   2
HETATM    2  C   UNL     1       2.612   0.914   0.271  1.00  0.00     0.041 C 
BRANCH   2   3
HETATM    3  C   UNL     1       3.889   1.772   0.271  1.00  0.00     0.029 C 
BRANCH   3   4
HETATM    4  C   UNL     1       5.194   1.029   0.328  1.00  0.00    -0.037 C 
HETATM    5  C   UNL     1       5.377  -0.296   0.397  1.00  0.00     0.007 C 
ENDBRANCH   3   4
ENDBRANCH   2   3
ENDBRANCH   1   2
BRANCH   1   6
HETATM    6  O   UNL     1       1.284   2.692   1.204  1.00  0.00    -0.319 OA
BRANCH   6   7
HETATM    7  C   UNL     1       1.247   4.017   0.937  1.00  0.00     0.398 C 
HETATM    8  O   UNL     1       1.214   4.885   1.791  1.00  0.00    -0.276 OA
ENDBRANCH   6   7
ENDBRANCH   1   6
BRANCH   1   9
HETATM    9  C   UNL     1       0.000   1.000   0.000  1.00  0.00    -0.064 C 
HETATM   10  C   UNL     1      -1.085   1.829  -0.058  1.00  0.00     0.016 C 
HETATM   11  C   UNL     1       0.000   0.000   0.000  1.00  0.00     0.045 C 
ENDBRANCH   1   9
TORSDOF 6
