REMARK  5 active torsions:
REMARK  status: ('A' for Active; 'I' for Inactive)
REMARK    1  A    between atoms: C_2  and  C_3 
REMARK    2  A    between atoms: C_3  and  O_4 
REMARK    3  A    between atoms: C_3  and  C_6 
REMARK    4  A    between atoms: C_10  and  S_11 
REMARK    5  A    between atoms: S_11  and  C_12 
ROOT
HETATM    1  C   UNL     1      -0.145  -0.578  -0.055  1.00  0.00    -0.028 C 
HETATM    2  C   UNL     1      -0.195  -1.923  -0.447  1.00  0.00     0.010 C 
HETATM    3  C   UNL     1      -1.364  -2.678  -0.343  1.00  0.00     0.002 C 
HETATM    4  C   UNL     1      -2.549  -2.080   0.060  1.00  0.00     0.019 C 
HETATM    5  C   UNL     1      -2.588  -0.712   0.315  1.00  0.00     0.008 C 
HETATM    6  C   UNL     1      -1.380   0.012   0.292  1.00  0.00     0.028 C 
ENDROOT
BRANCH   1   7
HETATM    7  C   UNL     1       1.164   0.223   0.138  1.00  0.00     0.153 C 
BRANCH   7   8
HETATM    8  C   UNL     1       2.598  -0.500   0.000  1.00  0.00     0.032 C 
HETATM    9  C   UNL     1       2.598  -1.500   0.000  1.00  0.00     0.008 C 
ENDBRANCH   7   8
BRANCH   7  10
HETATM   10  O   UNL     1       1.229   1.349  -0.761  1.00  0.00    -0.386 OA
HETATM   11  C   UNL     1       0.588   2.538  -0.328  1.00  0.00     0.202 C 
ENDBRANCH   7  10
ENDBRANCH   1   7
BRANCH   5  12
HETATM   12  S   UNL     1      -4.077   0.161   0.766  1.00  0.00    -0.062 SA
BRANCH  12  13
HETATM   13  C   UNL     1      -5.375  -0.766   0.043  1.00  0.00     0.309 C 
HETATM   14  O   UNL     1      -6.530  -0.381   0.098  1.00  0.00    -0.295 OA
ENDBRANCH  12  13
ENDBRANCH   5  12
TORSDOF 5
