REMARK  3 active torsions:
REMARK  status: ('A' for Active; 'I' for Inactive)
REMARK       I    between atoms: N_1  and  C_2 
REMARK    1  A    between atoms: C_2  and  C_4 
REMARK    2  A    between atoms: C_7  and  N_8 
REMARK    3  A    between atoms: N_8  and  C_9 
ROOT
HETATM    1  C   UNL     1      -0.104  -0.930  -0.301  1.00  0.00     0.100 C 
HETATM    2  C   UNL     1      -0.082   0.522   0.252  1.00  0.00     0.018 C 
HETATM    3  C   UNL     1       1.454   0.431   0.256  1.00  0.00     0.027 C 
HETATM    4  C   UNL     1       1.294  -1.101   0.375  1.00  0.00     0.096 C 
ENDROOT
BRANCH   1   5
HETATM    5  C   UNL     1      -1.223  -1.881   0.182  1.00  0.00     0.221 C 
HETATM    6  N   UNL     1      -2.493  -1.384   0.108  1.00  0.00    -0.370 N 
HETATM    7  H   UNL     1      -2.713  -0.471  -0.268  1.00  0.00     0.159 HD
HETATM    8  H   UNL     1      -3.251  -1.985   0.402  1.00  0.00     0.159 HD
HETATM    9  O   UNL     1      -1.054  -3.021   0.613  1.00  0.00    -0.273 OA
ENDBRANCH   1   5
BRANCH   4  10
HETATM   10  N   UNL     1       2.255  -1.905  -0.393  1.00  0.00    -0.363 N 
HETATM   11  H   UNL     1       1.976  -2.782  -0.823  1.00  0.00     0.162 HD
BRANCH  10  12
HETATM   12  C   UNL     1       3.611  -1.737  -0.345  1.00  0.00     0.348 C 
HETATM   13  O   UNL     1       4.402  -2.508  -0.869  1.00  0.00    -0.284 OA
ENDBRANCH  10  12
ENDBRANCH   4  10
TORSDOF 3
