REMARK  2 active torsions:
REMARK  status: ('A' for Active; 'I' for Inactive)
REMARK    1  A    between atoms: N_2  and  C_10 
REMARK    2  A    between atoms: C_14  and  O_15 
ROOT
HETATM    1  C   UNL     1      -0.971   2.494   0.000  1.00  0.00     0.274 A 
HETATM    2  N   UNL     1      -0.971   1.494   0.000  1.00  0.00    -0.102 N 
HETATM    3  C   UNL     1      -1.837   0.995   0.000  1.00  0.00     0.605 A 
HETATM    4  C   UNL     1      -1.837  -0.005   0.000  1.00  0.00     0.068 C 
HETATM    5  C   UNL     1      -3.151  -0.812  -0.423  1.00  0.00     0.177 C 
HETATM    6  O   UNL     1      -4.253  -0.003  -0.847  1.00  0.00    -0.359 OA
HETATM    7  C   UNL     1      -4.383   0.915   0.163  1.00  0.00     0.186 C 
HETATM    8  C   UNL     1      -3.304   1.326   0.842  1.00  0.00     0.202 C 
HETATM    9  O   UNL     1      -3.215   1.979   1.930  1.00  0.00    -0.289 OA
ENDROOT
BRANCH   2  10
HETATM   10  C   UNL     1       0.481   0.887  -0.294  1.00  0.00     0.202 C 
HETATM   11  C   UNL     1       1.674   1.634   0.367  1.00  0.00     0.035 C 
HETATM   12  C   UNL     1       2.901   0.876  -0.118  1.00  0.00     0.005 C 
HETATM   13  C   UNL     1       2.509  -0.579   0.006  1.00  0.00     0.034 C 
HETATM   14  C   UNL     1       0.987  -0.634  -0.182  1.00  0.00     0.147 C 
BRANCH  14  15
HETATM   15  O   UNL     1       0.524  -1.422   0.906  1.00  0.00    -0.394 OA
HETATM   16  H   UNL     1      -0.274  -1.895   0.613  1.00  0.00     0.210 HD
ENDBRANCH  14  15
ENDBRANCH   2  10
TORSDOF 2
