REMARK  6 active torsions:
REMARK  status: ('A' for Active; 'I' for Inactive)
REMARK    1  A    between atoms: O_2  and  C_3 
REMARK    2  A    between atoms: C_3  and  O_4 
REMARK    3  A    between atoms: O_4  and  C_5 
REMARK    4  A    between atoms: C_5  and  C_6 
REMARK    5  A    between atoms: C_6  and  C_7 
REMARK    6  A    between atoms: C_7  and  C_8 
ROOT
HETATM    1  C   UNL     1       1.113  -0.693   0.396  1.00  0.00    -0.015 C 
HETATM    2  C   UNL     1      -0.005  -1.446   0.271  1.00  0.00    -0.008 C 
HETATM    3  C   UNL     1       0.189  -2.909  -0.087  1.00  0.00     0.069 C 
HETATM    4  C   UNL     1      -1.103  -3.708  -0.038  1.00  0.00     0.179 C 
HETATM    5  O   UNL     1      -2.162  -3.072  -0.756  1.00  0.00    -0.359 OA
HETATM    6  C   UNL     1      -2.351  -1.811  -0.246  1.00  0.00     0.189 C 
HETATM    7  C   UNL     1      -1.428  -1.014   0.327  1.00  0.00     0.199 C 
HETATM    8  O   UNL     1      -1.626   0.073   0.934  1.00  0.00    -0.286 OA
ENDROOT
BRANCH   1   9
HETATM    9  C   UNL     1       1.161   0.807   0.519  1.00  0.00     0.030 C 
BRANCH   9  10
HETATM   10  C   UNL     1       2.494   1.413   0.075  1.00  0.00     0.030 C 
BRANCH  10  11
HETATM   11  C   UNL     1       2.364   2.929  -0.076  1.00  0.00     0.170 C 
BRANCH  11  12
HETATM   12  O   UNL     1       3.196   3.564   0.894  1.00  0.00    -0.367 OA
BRANCH  12  13
HETATM   13  C   UNL     1       3.418   4.931   0.581  1.00  0.00     0.337 C 
BRANCH  13  14
HETATM   14  O   UNL     1       4.359   5.115  -0.477  1.00  0.00    -0.372 OA
HETATM   15  C   UNL     1       5.508   4.293  -0.309  1.00  0.00     0.204 C 
ENDBRANCH  13  14
ENDBRANCH  12  13
ENDBRANCH  11  12
ENDBRANCH  10  11
ENDBRANCH   9  10
ENDBRANCH   1   9
TORSDOF 6
