REMARK  3 active torsions:
REMARK  status: ('A' for Active; 'I' for Inactive)
REMARK    1  A    between atoms: C_2  and  S_3 
REMARK    2  A    between atoms: S_3  and  C_4 
REMARK    3  A    between atoms: C_7  and  C_8 
ROOT
HETATM    1  C   UNL     1       1.428  -0.258  -0.000  1.00  0.00     0.099 A 
HETATM    2  C   UNL     1       1.468  -1.646  -0.000  1.00  0.00     0.040 A 
HETATM    3  C   UNL     1       0.267  -2.363  -0.000  1.00  0.00     0.016 A 
HETATM    4  C   UNL     1      -0.955  -1.686   0.000  1.00  0.00    -0.006 A 
HETATM    5  C   UNL     1      -0.885  -0.296  -0.000  1.00  0.00     0.130 A 
HETATM    6  N   UNL     1       0.266   0.425  -0.000  1.00  0.00    -0.253 NA
ENDROOT
BRANCH   4   7
HETATM    7  C   UNL     1      -2.221  -2.408  -0.000  1.00  0.00    -0.000 A 
HETATM    8  C   UNL     1      -3.470  -1.816  -0.000  1.00  0.00     0.153 A 
HETATM    9  O   UNL     1      -4.456  -2.750  -0.000  1.00  0.00    -0.334 OA
HETATM   10  C   UNL     1      -3.849  -3.961  -0.000  1.00  0.00     0.142 A 
HETATM   11  C   UNL     1      -2.482  -3.811  -0.000  1.00  0.00     0.039 A 
ENDBRANCH   4   7
BRANCH   1  12
HETATM   12  S   UNL     1       2.955   0.650   0.000  1.00  0.00    -0.042 SA
BRANCH  12  13
HETATM   13  C   UNL     1       2.406   2.316   0.000  1.00  0.00     0.310 C 
HETATM   14  O   UNL     1       3.211   3.243  -0.000  1.00  0.00    -0.295 OA
ENDBRANCH  12  13
ENDBRANCH   1  12
TORSDOF 3
