REMARK  3 active torsions:
REMARK  status: ('A' for Active; 'I' for Inactive)
REMARK    1  A    between atoms: C_6  and  N_7 
REMARK    2  A    between atoms: C_9  and  O_10 
REMARK    3  A    between atoms: O_10  and  C_11 
ROOT
HETATM    1  N   UNL     1      -3.149  -4.284   0.911  1.00  0.00    -0.191 NA
HETATM    2  C   UNL     1      -3.129  -3.155   0.649  1.00  0.00     0.102 C 
HETATM    3  C   UNL     1      -3.206  -1.771   0.282  1.00  0.00     0.078 C 
HETATM    4  C   UNL     1      -4.474  -1.188   0.135  1.00  0.00     0.027 C 
HETATM    5  C   UNL     1      -4.590   0.155  -0.222  1.00  0.00     0.025 C 
HETATM    6  C   UNL     1      -3.447   0.922  -0.436  1.00  0.00     0.008 C 
HETATM    7  C   UNL     1      -2.191   0.299  -0.414  1.00  0.00     0.062 C 
HETATM    8  C   UNL     1      -2.051  -1.018   0.033  1.00  0.00     0.098 C 
ENDROOT
BRANCH   8   9
HETATM    9  O   UNL     1      -0.852  -1.663   0.258  1.00  0.00    -0.303 OA
BRANCH   9  10
HETATM   10  C   UNL     1       0.397  -1.037   0.193  1.00  0.00     0.147 C 
HETATM   11  C   UNL     1       0.749   0.177   0.963  1.00  0.00     0.205 C 
HETATM   12  C   UNL     1       1.951   0.705   0.674  1.00  0.00     0.057 C 
HETATM   13  O   UNL     1      -0.093   0.563   1.815  1.00  0.00    -0.286 OA
HETATM   14  C   UNL     1       2.926   0.084  -0.274  1.00  0.00     0.206 C 
HETATM   15  O   UNL     1       2.665  -1.280  -0.642  1.00  0.00    -0.356 OA
HETATM   16  C   UNL     1       1.368  -1.688  -0.472  1.00  0.00     0.176 C 
ENDBRANCH   9  10
ENDBRANCH   8   9
BRANCH   6  17
HETATM   17  N   UNL     1      -3.560   2.267  -0.842  1.00  0.00    -0.303 NA
HETATM   18  H   UNL     1      -2.689   2.756  -0.630  1.00  0.00     0.124 HD
HETATM   19  H   UNL     1      -4.341   2.724  -0.382  1.00  0.00     0.124 HD
ENDBRANCH   6  17
TORSDOF 3
