REMARK  2 active torsions:
REMARK  status: ('A' for Active; 'I' for Inactive)
REMARK    1  A    between atoms: N_4  and  C_5 
REMARK    2  A    between atoms: C_5  and  C_6 
ROOT
HETATM    1  C   UNL     1      -4.403   1.142  -0.329  1.00  0.00     0.157 C 
HETATM    2  C   UNL     1      -4.700  -0.101   0.489  1.00  0.00     0.124 C 
HETATM    3  C   UNL     1      -6.185  -0.222   0.294  1.00  0.00     0.331 C 
HETATM    4  F   UNL     1      -6.428  -0.855  -0.887  1.00  0.00    -0.195 F 
HETATM    5  F   UNL     1      -6.729  -0.979   1.276  1.00  0.00    -0.195 F 
HETATM    6  C   UNL     1      -6.604   1.227   0.272  1.00  0.00     0.332 C 
HETATM    7  O   UNL     1      -7.712   1.690   0.506  1.00  0.00    -0.258 OA
HETATM    8  O   UNL     1      -5.528   2.003  -0.092  1.00  0.00    -0.309 OA
ENDROOT
BRANCH   1   9
HETATM    9  C   UNL     1      -3.110   1.867   0.053  1.00  0.00     0.178 C 
BRANCH   9  10
HETATM   10  N   UNL     1      -1.948   1.007   0.073  1.00  0.00    -0.281 N 
HETATM   11  C   UNL     1      -1.663  -0.044  -0.746  1.00  0.00     0.136 A 
HETATM   12  C   UNL     1      -0.712  -0.753  -0.046  1.00  0.00     0.065 A 
HETATM   13  C   UNL     1      -0.164  -2.094  -0.312  1.00  0.00     0.073 C 
HETATM   14  N   UNL     1      -0.357  -0.042   1.069  1.00  0.00    -0.164 NA
HETATM   15  N   UNL     1      -1.115   1.045   1.124  1.00  0.00     0.004 NA
ENDBRANCH   9  10
ENDBRANCH   1   9
TORSDOF 2
