REMARK  2 active torsions:
REMARK  status: ('A' for Active; 'I' for Inactive)
REMARK    1  A    between atoms: C_2  and  C_4 
REMARK    2  A    between atoms: C_4  and  S_6 
ROOT
HETATM    1  C   UNL     1       1.496   1.804  -0.364  1.00  0.00     0.183 C 
HETATM    2  O   UNL     1       1.460   2.967  -0.755  1.00  0.00    -0.283 OA
ENDROOT
BRANCH   1   3
HETATM    3  C   UNL     1       2.832   1.149  -0.120  1.00  0.00    -0.017 C 
HETATM    4  C   UNL     1       3.087  -0.170  -0.115  1.00  0.00     0.023 C 
HETATM    5  C   UNL     1       3.950   2.140   0.085  1.00  0.00     0.052 C 
ENDBRANCH   1   3
BRANCH   1   6
HETATM    6  S   UNL     1       0.000   1.000   0.000  1.00  0.00    -0.228 SA
HETATM    7  C   UNL     1       0.000   0.000   0.000  1.00  0.00     0.271 C 
ENDBRANCH   1   6
TORSDOF 2
