REMARK  3 active torsions:
REMARK  status: ('A' for Active; 'I' for Inactive)
REMARK    1  A    between atoms: S_2  and  C_3 
REMARK    2  A    between atoms: CA_6  and  C_7 
REMARK    3  A    between atoms: C_7  and  O_8 
ROOT
HETATM    1  C   UNL     1       0.743   0.751   0.044  1.00  0.00     0.110 A 
HETATM    2  C   UNL     1       1.912  -0.005   0.072  1.00  0.00     0.155 A 
HETATM    3  N   UNL     1       1.931  -1.366   0.068  1.00  0.00    -0.259 NA
HETATM    4  CA  UNL     1       0.712  -1.967   0.039  1.00  0.00     0.075 A 
HETATM    5  C   UNL     1      -0.456  -1.221   0.015  1.00  0.00     0.147 A 
HETATM    6  N   UNL     1      -0.463   0.133   0.018  1.00  0.00    -0.251 NA
ENDROOT
BRANCH   4   7
HETATM    7  C   UNL     1       0.663  -3.474   0.017  1.00  0.00     0.224 C 
BRANCH   7   8
HETATM    8  O   UNL     1       1.964  -4.036   0.179  1.00  0.00    -0.395 OA
HETATM    9  H   UNL     1       2.576  -3.271   0.200  1.00  0.00     0.209 HD
ENDBRANCH   7   8
ENDBRANCH   4   7
BRANCH   1  10
HETATM   10  S   UNL     1       0.654   2.528   0.048  1.00  0.00    -0.113 SA
HETATM   11  C   UNL     1       2.378   3.032  -0.164  1.00  0.00     0.097 C 
ENDBRANCH   1  10
TORSDOF 3
