REMARK  6 active torsions:
REMARK  status: ('A' for Active; 'I' for Inactive)
REMARK    1  A    between atoms: C_2  and  C_3 
REMARK    2  A    between atoms: C_3  and  C_4 
REMARK    3  A    between atoms: C_5  and  C_6 
REMARK    4  A    between atoms: C_6  and  C_7 
REMARK    5  A    between atoms: C_7  and  O_8 
REMARK    6  A    between atoms: O_8  and  C_9 
ROOT
HETATM    1  C   UNL     1       4.619   1.042   0.897  1.00  0.00    -0.107 C 
HETATM    2  C   UNL     1       3.696   0.294   0.867  1.00  0.00    -0.104 C 
ENDROOT
BRANCH   2   3
HETATM    3  C   UNL     1       2.534  -0.474   0.440  1.00  0.00     0.120 C 
BRANCH   3   4
HETATM    4  C   UNL     1       1.506   0.538  -0.047  1.00  0.00     0.190 C 
BRANCH   4   5
HETATM    5  O   UNL     1       0.291  -0.127  -0.364  1.00  0.00    -0.328 OA
BRANCH   5   6
HETATM    6  C   UNL     1      -0.787   0.688  -0.369  1.00  0.00     0.398 C 
HETATM    7  O   UNL     1      -1.925   0.304  -0.573  1.00  0.00    -0.276 OA
ENDBRANCH   5   6
ENDBRANCH   4   5
ENDBRANCH   3   4
ENDBRANCH   2   3
BRANCH   1   8
HETATM    8  C   UNL     1       5.748   1.860   0.500  1.00  0.00     0.093 C 
BRANCH   8   9
HETATM    9  C   UNL     1       6.928   1.000   0.000  1.00  0.00     0.007 C 
HETATM   10  C   UNL     1       6.928   0.000   0.000  1.00  0.00     0.006 C 
ENDBRANCH   8   9
ENDBRANCH   1   8
TORSDOF 6
