REMARK  3 active torsions:
REMARK  status: ('A' for Active; 'I' for Inactive)
REMARK    1  A    between atoms: N_4  and  C_5 
REMARK    2  A    between atoms: C_5  and  C_6 
REMARK    3  A    between atoms: C_12  and  O_13 
ROOT
HETATM    1  C   UNL     1       0.646   0.686   0.114  1.00  0.00    -0.027 C 
HETATM    2  C   UNL     1       0.779   1.986  -0.233  1.00  0.00     0.010 C 
HETATM    3  C   UNL     1      -0.567   2.674  -0.223  1.00  0.00     0.301 C 
HETATM    4  N   UNL     1      -1.408   1.500  -0.309  1.00  0.00     0.103 N 
HETATM    5  C   UNL     1      -2.814   1.433  -0.074  1.00  0.00     0.276 C 
HETATM    6  C   UNL     1      -3.005  -0.092  -0.185  1.00  0.00     0.064 C 
HETATM    7  C   UNL     1      -1.676  -0.727   0.290  1.00  0.00     0.157 C 
HETATM    8  C   UNL     1      -0.773   0.483   0.532  1.00  0.00     0.282 C 
ENDROOT
BRANCH   1   9
HETATM    9  C   UNL     1       1.582  -0.474   0.160  1.00  0.00     0.182 C 
BRANCH   9  10
HETATM   10  N   UNL     1       3.022  -0.242   0.119  1.00  0.00    -0.279 N 
HETATM   11  C   UNL     1       3.961  -1.204  -0.122  1.00  0.00     0.136 A 
HETATM   12  C   UNL     1       5.161  -0.579   0.122  1.00  0.00     0.065 A 
HETATM   13  C   UNL     1       6.535  -1.118   0.063  1.00  0.00     0.073 C 
HETATM   14  N   UNL     1       4.919   0.714   0.506  1.00  0.00    -0.164 NA
HETATM   15  N   UNL     1       3.604   0.892   0.537  1.00  0.00     0.004 NA
ENDBRANCH   9  10
ENDBRANCH   1   9
BRANCH   7  16
HETATM   16  O   UNL     1      -1.155  -1.651  -0.655  1.00  0.00    -0.393 OA
HETATM   17  H   UNL     1      -1.741  -2.427  -0.656  1.00  0.00     0.210 HD
ENDBRANCH   7  16
TORSDOF 3
