REMARK  5 active torsions:
REMARK  status: ('A' for Active; 'I' for Inactive)
REMARK    1  A    between atoms: O_2  and  C_3 
REMARK    2  A    between atoms: C_7  and  C_8 
REMARK    3  A    between atoms: C_8  and  N_9 
REMARK       I    between atoms: N_9  and  C_10 
REMARK    4  A    between atoms: C_10  and  O_12 
REMARK    5  A    between atoms: O_12  and  C_13 
ROOT
HETATM    1  N   UNL     1      -2.302   3.359  -0.283  1.00  0.00    -0.332 N 
HETATM    2  C   UNL     1      -3.253   2.672  -0.986  1.00  0.00     0.366 C 
HETATM    3  O   UNL     1      -4.177   3.266  -1.539  1.00  0.00    -0.238 OA
HETATM    4  H   UNL     1      -2.452   4.357  -0.322  1.00  0.00     0.165 HD
ENDROOT
BRANCH   1   5
HETATM    5  C   UNL     1      -1.078   2.898   0.356  1.00  0.00     0.163 C 
BRANCH   5   6
HETATM    6  C   UNL     1      -1.057   1.465   0.812  1.00  0.00    -0.038 A 
HETATM    7  C   UNL     1      -2.033   0.953   1.676  1.00  0.00     0.009 A 
HETATM    8  C   UNL     1      -2.123  -0.424   1.901  1.00  0.00     0.003 A 
HETATM    9  C   UNL     1      -1.199  -1.296   1.321  1.00  0.00     0.037 A 
HETATM   10  C   UNL     1      -0.157  -0.782   0.547  1.00  0.00     0.068 A 
HETATM   11  C   UNL     1      -0.093   0.591   0.295  1.00  0.00     0.045 A 
BRANCH  10  12
HETATM   12  O   UNL     1       0.866  -1.500   0.000  1.00  0.00    -0.356 OA
HETATM   13  C   UNL     1       0.866  -2.500   0.000  1.00  0.00     0.210 C 
ENDBRANCH  10  12
ENDBRANCH   5   6
ENDBRANCH   1   5
BRANCH   2  14
HETATM   14  O   UNL     1      -3.087   1.320  -1.013  1.00  0.00    -0.256 OA
BRANCH  14  15
HETATM   15  C   UNL     1      -4.280   0.590  -0.888  1.00  0.00     0.148 C 
HETATM   16  C   UNL     1      -5.377   1.018   0.028  1.00  0.00     0.187 C 
HETATM   17  C   UNL     1      -6.699   0.336  -0.178  1.00  0.00     0.112 C 
HETATM   18  O   UNL     1      -5.213   1.867   0.903  1.00  0.00    -0.290 OA
HETATM   19  C   UNL     1      -6.410  -1.146  -0.303  1.00  0.00     0.182 C 
HETATM   20  O   UNL     1      -5.508  -1.445  -1.375  1.00  0.00    -0.360 OA
HETATM   21  C   UNL     1      -4.437  -0.596  -1.489  1.00  0.00     0.175 C 
ENDBRANCH  14  15
ENDBRANCH   2  14
TORSDOF 5
