REMARK  2 active torsions:
REMARK  status: ('A' for Active; 'I' for Inactive)
REMARK    1  A    between atoms: S_2  and  C_3 
REMARK       I    between atoms: C_3  and  N_5 
REMARK    2  A    between atoms: N_5  and  C_6 
ROOT
HETATM    1  C   UNL     1      -1.204  -0.803  -0.610  1.00  0.00     0.085 C 
HETATM    2  C   UNL     1      -2.416   0.093  -0.833  1.00  0.00     0.025 C 
HETATM    3  C   UNL     1      -2.623   0.845   0.466  1.00  0.00     0.002 C 
HETATM    4  C   UNL     1      -1.284   1.431   0.959  1.00  0.00     0.004 C 
HETATM    5  C   UNL     1       0.000   1.000   0.000  1.00  0.00    -0.017 C 
HETATM    6  C   UNL     1       1.512   1.371   0.509  1.00  0.00     0.010 C 
HETATM    7  C   UNL     1       0.000   0.000   0.000  1.00  0.00     0.029 C 
ENDROOT
BRANCH   1   8
HETATM    8  N   UNL     1      -0.852  -1.545  -1.809  1.00  0.00    -0.347 N 
HETATM    9  C   UNL     1      -0.062  -2.672  -1.921  1.00  0.00     0.279 C 
HETATM   10  O   UNL     1       0.228  -3.111  -3.028  1.00  0.00    -0.260 OA
HETATM   11  H   UNL     1      -1.028  -1.127  -2.711  1.00  0.00     0.163 HD
BRANCH   9  12
HETATM   12  S   UNL     1       0.530  -3.418  -0.466  1.00  0.00    -0.074 SA
HETATM   13  C   UNL     1      -1.001  -4.114   0.183  1.00  0.00     0.100 C 
ENDBRANCH   9  12
ENDBRANCH   1   8
TORSDOF 2
