REMARK  2 active torsions:
REMARK  status: ('A' for Active; 'I' for Inactive)
REMARK    1  A    between atoms: O_2  and  C_3 
REMARK    2  A    between atoms: C_3  and  C_5 
ROOT
HETATM    1  C   UNL     1      -0.847  -0.460   1.288  1.00  0.00     0.087 C 
HETATM    2  C   UNL     1      -1.926   0.238   2.210  1.00  0.00     0.015 C 
HETATM    3  C   UNL     1      -2.761   1.134   1.300  1.00  0.00     0.003 C 
HETATM    4  C   UNL     1      -1.896   1.467   0.093  1.00  0.00     0.026 C 
HETATM    5  C   UNL     1       0.000   1.000   0.000  1.00  0.00     0.141 C 
HETATM    6  N   UNL     1       1.110   1.283   1.076  1.00  0.00    -0.273 NA
HETATM    7  C   UNL     1       1.503   2.570   0.875  1.00  0.00     0.069 C 
HETATM    8  S   UNL     1       3.008   3.222   0.957  1.00  0.00    -0.064 SA
HETATM    9  S   UNL     1       0.000   3.000   0.000  1.00  0.00    -0.268 SA
HETATM   10  C   UNL     1       0.000   4.000   0.000  1.00  0.00     0.210 C 
HETATM   11  C   UNL     1       0.000   0.000   0.000  1.00  0.00     0.040 C 
HETATM   12  H   UNL     1       1.921   0.668   1.143  1.00  0.00     0.129 HD
ENDROOT
BRANCH   1  13
HETATM   13  C   UNL     1      -0.989  -1.877   1.134  1.00  0.00     0.262 C 
HETATM   14  O   UNL     1      -0.539  -2.691   2.019  1.00  0.00    -0.265 OA
BRANCH  13  15
HETATM   15  O   UNL     1      -1.631  -2.327   0.082  1.00  0.00    -0.326 OA
HETATM   16  C   UNL     1      -2.854  -1.721  -0.275  1.00  0.00     0.213 C 
ENDBRANCH  13  15
ENDBRANCH   1  13
TORSDOF 2
