REMARK  7 active torsions:
REMARK  status: ('A' for Active; 'I' for Inactive)
REMARK    1  A    between atoms: S_2  and  C_3 
REMARK    2  A    between atoms: C_3  and  C_4 
REMARK    3  A    between atoms: C_3  and  C_6 
REMARK    4  A    between atoms: C_4  and  O_5 
REMARK    5  A    between atoms: C_6  and  O_8 
REMARK    6  A    between atoms: O_8  and  C_9 
REMARK    7  A    between atoms: C_9  and  C_10 
ROOT
HETATM    1  C   UNL     1       1.000   2.000   0.000  1.00  0.00     0.133 C 
HETATM    2  C   UNL     1      -0.092   1.420   0.978  1.00  0.00     0.041 C 
ENDROOT
BRANCH   1   3
HETATM    3  C   UNL     1       1.000   3.000   0.000  1.00  0.00     0.099 C 
BRANCH   3   4
HETATM    4  S   UNL     1       2.719   3.465  -1.050  1.00  0.00    -0.164 SA
HETATM    5  C   UNL     1       3.950   3.253   0.257  1.00  0.00     0.090 C 
ENDBRANCH   3   4
BRANCH   3   6
HETATM    6  C   UNL     1      -0.236   3.409  -1.116  1.00  0.00     0.181 C 
BRANCH   6   7
HETATM    7  O   UNL     1      -1.476   2.719  -0.960  1.00  0.00    -0.400 OA
HETATM    8  H   UNL     1      -1.913   2.741  -1.829  1.00  0.00     0.209 HD
ENDBRANCH   6   7
ENDBRANCH   3   6
ENDBRANCH   1   3
BRANCH   1   9
HETATM    9  O   UNL     1       0.971   1.161  -1.187  1.00  0.00    -0.385 OA
BRANCH   9  10
HETATM   10  C   UNL     1       1.826   0.006  -1.148  1.00  0.00     0.172 C 
BRANCH  10  11
HETATM   11  C   UNL     1       1.216  -1.105  -0.347  1.00  0.00     0.009 A 
HETATM   12  C   UNL     1      -0.009  -1.818  -0.858  1.00  0.00     0.007 A 
HETATM   13  C   UNL     1       1.309  -2.543  -0.798  1.00  0.00     0.007 A 
ENDBRANCH  10  11
ENDBRANCH   9  10
ENDBRANCH   1   9
TORSDOF 7
