REMARK  5 active torsions:
REMARK  status: ('A' for Active; 'I' for Inactive)
REMARK       I    between atoms: C_2  and  N_3 
REMARK    1  A    between atoms: C_2  and  O_17 
REMARK    2  A    between atoms: N_3  and  C_4 
REMARK    3  A    between atoms: C_8  and  C_9 
REMARK    4  A    between atoms: C_9  and  C_10 
REMARK    5  A    between atoms: O_17  and  C_18 
ROOT
HETATM    1  C   UNL     1       3.309   1.245  -0.560  1.00  0.00     0.037 C 
HETATM    2  C   UNL     1       2.176   1.933  -0.122  1.00  0.00     0.029 C 
HETATM    3  C   UNL     1       2.240   3.286   0.220  1.00  0.00     0.003 C 
HETATM    4  C   UNL     1       3.457   3.955   0.197  1.00  0.00     0.007 C 
HETATM    5  C   UNL     1       4.618   3.281  -0.195  1.00  0.00    -0.052 C 
HETATM    6  C   UNL     1       4.506   1.957  -0.663  1.00  0.00     0.037 C 
ENDROOT
BRANCH   1   7
HETATM    7  N   UNL     1       3.380  -0.145  -0.805  1.00  0.00    -0.302 N 
HETATM    8  C   UNL     1       2.390  -1.098  -0.763  1.00  0.00     0.370 C 
HETATM    9  O   UNL     1       2.651  -2.297  -0.710  1.00  0.00    -0.238 OA
HETATM   10  H   UNL     1       4.302  -0.550  -0.905  1.00  0.00     0.171 HD
BRANCH   8  11
HETATM   11  O   UNL     1       1.147  -0.572  -0.810  1.00  0.00    -0.256 OA
BRANCH  11  12
HETATM   12  C   UNL     1      -0.066  -1.189  -0.464  1.00  0.00     0.148 C 
HETATM   13  C   UNL     1      -1.270  -0.323  -0.603  1.00  0.00     0.187 C 
HETATM   14  C   UNL     1      -2.534  -0.799   0.047  1.00  0.00     0.112 C 
HETATM   15  O   UNL     1      -1.196   0.784  -1.131  1.00  0.00    -0.290 OA
HETATM   16  C   UNL     1      -2.577  -2.309  -0.046  1.00  0.00     0.182 C 
HETATM   17  O   UNL     1      -1.423  -2.931   0.528  1.00  0.00    -0.360 OA
HETATM   18  C   UNL     1      -0.229  -2.381   0.123  1.00  0.00     0.175 C 
ENDBRANCH  11  12
ENDBRANCH   8  11
ENDBRANCH   1   7
BRANCH   5  19
HETATM   19  C   UNL     1       5.957   3.988  -0.078  1.00  0.00     0.077 C 
BRANCH  19  20
HETATM   20  C   UNL     1       7.167   3.108   0.185  1.00  0.00    -0.054 A 
HETATM   21  C   UNL     1       7.098   1.954   0.986  1.00  0.00     0.007 A 
HETATM   22  C   UNL     1       8.191   1.095   1.097  1.00  0.00     0.001 A 
HETATM   23  C   UNL     1       9.394   1.423   0.482  1.00  0.00     0.000 A 
HETATM   24  C   UNL     1       9.509   2.618  -0.226  1.00  0.00     0.001 A 
HETATM   25  C   UNL     1       8.403   3.456  -0.376  1.00  0.00     0.007 A 
ENDBRANCH  19  20
ENDBRANCH   5  19
TORSDOF 5
