REMARK  2 active torsions:
REMARK  status: ('A' for Active; 'I' for Inactive)
REMARK    1  A    between atoms: C_2  and  S_3 
REMARK    2  A    between atoms: S_3  and  C_4 
ROOT
HETATM    1  C   UNL     1      -0.762  -0.608  -0.000  1.00  0.00     0.049 A 
HETATM    2  C   UNL     1      -1.965   0.110  -0.000  1.00  0.00     0.022 A 
HETATM    3  C   UNL     1      -1.979   1.513   0.000  1.00  0.00     0.005 A 
HETATM    4  C   UNL     1      -0.786   2.227  -0.000  1.00  0.00     0.045 A 
HETATM    5  C   UNL     1       0.414   1.531   0.000  1.00  0.00     0.156 A 
HETATM    6  F   UNL     1       1.566   2.216  -0.000  1.00  0.00    -0.203 F 
HETATM    7  C   UNL     1       0.430   0.138  -0.000  1.00  0.00     0.172 A 
HETATM    8  F   UNL     1       1.621  -0.485  -0.000  1.00  0.00    -0.201 F 
ENDROOT
BRANCH   1   9
HETATM    9  S   UNL     1      -0.597  -2.385  -0.000  1.00  0.00    -0.058 SA
BRANCH   9  10
HETATM   10  C   UNL     1      -2.177  -3.131   0.000  1.00  0.00     0.309 C 
HETATM   11  O   UNL     1      -3.252  -2.546  -0.000  1.00  0.00    -0.295 OA
ENDBRANCH   9  10
ENDBRANCH   1   9
TORSDOF 2
