REMARK  3 active torsions:
REMARK  status: ('A' for Active; 'I' for Inactive)
REMARK    1  A    between atoms: O_2  and  C_3 
REMARK    2  A    between atoms: C_8  and  O_9 
REMARK    3  A    between atoms: O_9  and  C_10 
ROOT
HETATM    1  C   UNL     1      -3.527   0.378  -0.146  1.00  0.00     0.201 A 
HETATM    2  N   UNL     1      -4.717   0.935   0.154  1.00  0.00    -0.215 NA
HETATM    3  C   UNL     1      -4.860   2.216  -0.214  1.00  0.00     0.235 A 
HETATM    4  N   UNL     1      -3.937   2.972  -0.833  1.00  0.00    -0.251 NA
HETATM    5  C   UNL     1      -2.761   2.364  -1.093  1.00  0.00     0.159 A 
HETATM    6  C   UNL     1      -2.483   1.065  -0.735  1.00  0.00     0.146 A 
ENDROOT
BRANCH   6   7
HETATM    7  O   UNL     1      -1.320   0.435  -1.054  1.00  0.00    -0.299 OA
BRANCH   7   8
HETATM    8  C   UNL     1      -0.145   0.758  -0.399  1.00  0.00     0.143 C 
HETATM    9  C   UNL     1       1.022  -0.141  -0.667  1.00  0.00     0.186 C 
HETATM   10  C   UNL     1       2.257   0.069   0.166  1.00  0.00     0.112 C 
HETATM   11  O   UNL     1       0.944  -1.060  -1.478  1.00  0.00    -0.290 OA
HETATM   12  C   UNL     1       2.399   1.554   0.402  1.00  0.00     0.182 C 
HETATM   13  O   UNL     1       1.257   2.086   1.079  1.00  0.00    -0.360 OA
HETATM   14  C   UNL     1       0.061   1.747   0.489  1.00  0.00     0.175 C 
ENDBRANCH   7   8
ENDBRANCH   6   7
BRANCH   1  15
HETATM   15  O   UNL     1      -3.290  -0.931   0.219  1.00  0.00    -0.337 OA
HETATM   16  C   UNL     1      -4.431  -1.777   0.145  1.00  0.00     0.211 C 
ENDBRANCH   1  15
TORSDOF 3
