REMARK  1 active torsions:
REMARK  status: ('A' for Active; 'I' for Inactive)
REMARK    1  A    between atoms: N_3  and  C_4 
ROOT
HETATM    1  N   UNL     1       4.257  -0.970   0.000  1.00  0.00     0.068 N 
HETATM    2  N   UNL     1       3.306  -0.334   0.000  1.00  0.00    -0.162 NA
HETATM    3  N   UNL     1       2.289   0.367  -0.000  1.00  0.00    -0.067 NA
ENDROOT
BRANCH   3   4
HETATM    4  C   UNL     1       1.083  -0.320  -0.000  1.00  0.00     0.164 A 
HETATM    5  C   UNL     1      -0.165   0.488   0.000  1.00  0.00     0.203 A 
HETATM    6  C   UNL     1      -1.319  -0.203   0.000  1.00  0.00     0.057 A 
HETATM    7  O   UNL     1      -0.007   1.740   0.000  1.00  0.00    -0.286 OA
HETATM    8  C   UNL     1      -1.406  -1.674  -0.000  1.00  0.00     0.206 A 
HETATM    9  O   UNL     1      -0.209  -2.390   0.000  1.00  0.00    -0.357 OA
HETATM   10  C   UNL     1       0.952  -1.666   0.000  1.00  0.00     0.173 A 
ENDBRANCH   3   4
TORSDOF 1
