REMARK  0 active torsions:
REMARK  status: ('A' for Active; 'I' for Inactive)
ROOT
HETATM    1  C   UNL     1       1.732   0.000   0.000  1.00  0.00     0.250 C 
HETATM    2  S   UNL     1       1.732   1.000   0.000  1.00  0.00    -0.241 SA
HETATM    3  C   UNL     1       0.755   1.784   1.016  1.00  0.00     0.159 A 
HETATM    4  O   UNL     1       0.767   2.891   1.485  1.00  0.00    -0.288 OA
HETATM    5  C   UNL     1       0.000   1.000   0.000  1.00  0.00     0.070 A 
HETATM    6  C   UNL     1      -0.866   1.500   0.000  1.00  0.00     0.025 A 
HETATM    7  C   UNL     1       0.000   0.000   0.000  1.00  0.00     0.025 A 
ENDROOT
TORSDOF 0
