REMARK  3 active torsions:
REMARK  status: ('A' for Active; 'I' for Inactive)
REMARK    1  A    between atoms: N_4  and  C_5 
REMARK    2  A    between atoms: C_9  and  C_10 
REMARK    3  A    between atoms: C_16  and  O_17 
ROOT
HETATM    1  C   UNL     1      -2.516  -2.313  -0.067  1.00  0.00     0.055 A 
HETATM    2  C   UNL     1      -2.660  -3.698   0.022  1.00  0.00     0.031 A 
HETATM    3  C   UNL     1      -3.937  -4.246   0.080  1.00  0.00     0.003 A 
HETATM    4  C   UNL     1      -5.063  -3.411   0.069  1.00  0.00     0.014 A 
HETATM    5  C   UNL     1      -4.968  -2.005  -0.023  1.00  0.00    -0.001 A 
HETATM    6  C   UNL     1      -3.662  -1.488  -0.126  1.00  0.00     0.045 A 
ENDROOT
BRANCH   5   7
HETATM    7  C   UNL     1      -6.203  -1.166  -0.024  1.00  0.00     0.122 A 
HETATM    8  C   UNL     1      -6.295   0.231  -0.005  1.00  0.00     0.100 A 
HETATM    9  C   UNL     1      -7.534   0.865  -0.072  1.00  0.00     0.085 A 
HETATM   10  C   UNL     1      -8.660   0.080  -0.096  1.00  0.00     0.151 A 
HETATM   11  N   UNL     1      -8.597  -1.259  -0.073  1.00  0.00    -0.137 NA
HETATM   12 CL   UNL     1     -10.232   0.753  -0.119  1.00  0.00    -0.060 Cl
HETATM   13  N   UNL     1      -7.362  -1.876  -0.049  1.00  0.00    -0.145 NA
BRANCH   8  14
HETATM   14  O   UNL     1      -5.239   1.092   0.102  1.00  0.00    -0.358 OA
HETATM   15  H   UNL     1      -4.678   0.794   0.842  1.00  0.00     0.217 HD
ENDBRANCH   8  14
ENDBRANCH   5   7
BRANCH   1  16
HETATM   16  N   UNL     1      -1.231  -1.709  -0.080  1.00  0.00    -0.247 N 
HETATM   17  C   UNL     1       0.011  -2.300  -0.081  1.00  0.00     0.142 A 
HETATM   18  C   UNL     1       0.903  -1.251  -0.048  1.00  0.00     0.065 A 
HETATM   19  C   UNL     1       2.378  -1.261  -0.039  1.00  0.00     0.073 C 
HETATM   20  N   UNL     1       0.210  -0.076  -0.016  1.00  0.00    -0.163 NA
HETATM   21  N   UNL     1      -1.083  -0.361  -0.042  1.00  0.00     0.009 NA
ENDBRANCH   1  16
TORSDOF 3
