REMARK  3 active torsions:
REMARK  status: ('A' for Active; 'I' for Inactive)
REMARK    1  A    between atoms: S_2  and  C_3 
REMARK    2  A    between atoms: C_3  and  N_5 
REMARK    3  A    between atoms: N_5  and  C_6 
ROOT
HETATM    1  N   UNL     1       0.905   0.648  -0.090  1.00  0.00    -0.369 N 
HETATM    2  H   UNL     1       1.384   1.028   0.718  1.00  0.00     0.161 HD
ENDROOT
BRANCH   1   3
HETATM    3  C   UNL     1      -0.183   1.385  -0.488  1.00  0.00     0.134 C 
HETATM    4  S   UNL     1      -1.280   1.000  -1.678  1.00  0.00    -0.053 SA
BRANCH   3   5
HETATM    5  S   UNL     1      -0.363   2.785   0.549  1.00  0.00    -0.105 SA
HETATM    6  C   UNL     1       0.874   3.894  -0.153  1.00  0.00     0.098 C 
ENDBRANCH   3   5
ENDBRANCH   1   3
BRANCH   1   7
HETATM    7  C   UNL     1       1.147  -0.754  -0.415  1.00  0.00     0.108 C 
HETATM    8  C   UNL     1       2.466  -1.253   0.125  1.00  0.00     0.053 C 
HETATM    9  C   UNL     1       2.248  -2.745   0.191  1.00  0.00     0.169 C 
HETATM   10  O   UNL     1       0.875  -2.929   0.565  1.00  0.00    -0.389 OA
HETATM   11  C   UNL     1       0.162  -1.724   0.246  1.00  0.00     0.192 C 
ENDBRANCH   1   7
TORSDOF 3
