REMARK  14 active torsions:
REMARK  status: ('A' for Active; 'I' for Inactive)
REMARK    1  A    between atoms: C_2  and  C_4 
REMARK    2  A    between atoms: C_4  and  C_5 
REMARK    3  A    between atoms: C_5  and  C_7 
REMARK    4  A    between atoms: C_7  and  O_8 
REMARK    5  A    between atoms: C_7  and  C_9 
REMARK    6  A    between atoms: C_9  and  C_11 
REMARK    7  A    between atoms: C_11  and  C_12 
REMARK    8  A    between atoms: C_11  and  C_15 
REMARK    9  A    between atoms: C_12  and  C_13 
REMARK   10  A    between atoms: C_13  and  O_14 
REMARK   11  A    between atoms: C_15  and  C_17 
REMARK   12  A    between atoms: C_22  and  O_23 
REMARK   13  A    between atoms: O_23  and  C_24 
REMARK   14  A    between atoms: C_26  and  N_27 
ROOT
HETATM    1  C   UNL     1       2.947   0.348  -0.197  1.00  0.00     0.044 A 
HETATM    2  C   UNL     1       3.933   1.174  -0.759  1.00  0.00     0.018 A 
HETATM    3  C   UNL     1       4.220   2.426  -0.218  1.00  0.00     0.001 A 
HETATM    4  C   UNL     1       3.494   2.898   0.876  1.00  0.00     0.003 A 
HETATM    5  C   UNL     1       2.454   2.131   1.390  1.00  0.00     0.038 A 
HETATM    6  C   UNL     1       2.164   0.875   0.813  1.00  0.00     0.090 A 
ENDROOT
BRANCH   1   7
HETATM    7  C   UNL     1       2.642  -1.028  -0.715  1.00  0.00     0.173 C 
HETATM    8  O   UNL     1       1.705  -1.157  -1.498  1.00  0.00    -0.291 OA
BRANCH   7   9
HETATM    9  C   UNL     1       3.525  -2.205  -0.302  1.00  0.00     0.135 C 
BRANCH   9  10
HETATM   10  C   UNL     1       4.568  -1.835   0.716  1.00  0.00     0.174 C 
HETATM   11  O   UNL     1       4.280  -1.471   1.859  1.00  0.00    -0.294 OA
BRANCH  10  12
HETATM   12  C   UNL     1       6.003  -2.013   0.312  1.00  0.00     0.258 C 
BRANCH  12  13
HETATM   13  C   UNL     1       6.398  -1.277  -0.949  1.00  0.00     0.169 C 
HETATM   14  O   UNL     1       5.612  -0.910  -1.820  1.00  0.00    -0.294 OA
BRANCH  13  15
HETATM   15  C   UNL     1       7.842  -1.253  -1.239  1.00  0.00     0.159 C 
BRANCH  15  16
HETATM   16  C   UNL     1       8.660  -1.000   0.000  1.00  0.00     0.130 C 
HETATM   17  C   UNL     1       9.526  -1.500   0.000  1.00  0.00     0.091 C 
HETATM   18  O   UNL     1       8.253  -0.185   0.832  1.00  0.00    -0.298 OA
ENDBRANCH  15  16
ENDBRANCH  13  15
ENDBRANCH  12  13
BRANCH  12  19
HETATM   19  O   UNL     1       6.390  -3.353   0.002  1.00  0.00    -0.380 OA
HETATM   20  H   UNL     1       6.603  -3.784   0.866  1.00  0.00     0.211 HD
ENDBRANCH  12  19
ENDBRANCH  10  12
ENDBRANCH   9  10
BRANCH   9  21
HETATM   21  C   UNL     1       2.828  -3.489   0.183  1.00  0.00     0.046 C 
BRANCH  21  22
HETATM   22  C   UNL     1       3.838  -4.657   0.305  1.00  0.00     0.165 C 
BRANCH  22  23
HETATM   23  O   UNL     1       3.190  -5.874   0.641  1.00  0.00    -0.401 OA
HETATM   24  H   UNL     1       3.128  -6.403  -0.173  1.00  0.00     0.209 HD
ENDBRANCH  22  23
ENDBRANCH  21  22
ENDBRANCH   9  21
ENDBRANCH   7   9
ENDBRANCH   1   7
BRANCH   6  25
HETATM   25  O   UNL     1       0.963   0.255   1.068  1.00  0.00    -0.304 OA
BRANCH  25  26
HETATM   26  C   UNL     1      -0.136   0.790   0.397  1.00  0.00     0.145 C 
HETATM   27  C   UNL     1      -1.445   0.066   0.512  1.00  0.00     0.279 C 
HETATM   28  N   UNL     1      -2.551   0.739   0.051  1.00  0.00    -0.330 N 
HETATM   29  O   UNL     1      -1.534  -1.067   0.989  1.00  0.00    -0.265 OA
HETATM   30  C   UNL     1      -2.510   2.023  -0.443  1.00  0.00     0.114 C 
HETATM   31  H   UNL     1      -3.429   0.256   0.146  1.00  0.00     0.168 HD
HETATM   32  C   UNL     1      -1.343   2.651  -0.641  1.00  0.00     0.024 C 
HETATM   33  C   UNL     1      -0.130   1.919  -0.338  1.00  0.00     0.067 C 
BRANCH  32  34
HETATM   34  N   UNL     1      -1.194   3.981  -0.960  1.00  0.00    -0.302 NA
HETATM   35  H   UNL     1      -0.271   4.342  -0.738  1.00  0.00     0.124 HD
HETATM   36  H   UNL     1      -1.907   4.553  -0.515  1.00  0.00     0.124 HD
ENDBRANCH  32  34
ENDBRANCH  25  26
ENDBRANCH   6  25
TORSDOF 14
