REMARK  3 active torsions:
REMARK  status: ('A' for Active; 'I' for Inactive)
REMARK    1  A    between atoms: S_2  and  C_3 
REMARK       I    between atoms: C_3  and  N_5 
REMARK    2  A    between atoms: N_5  and  C_6 
REMARK    3  A    between atoms: C_9  and  C_10 
ROOT
HETATM    1  C   UNL     1       1.402  -1.085  -0.655  1.00  0.00     0.035 C 
HETATM    2  C   UNL     1       1.792  -2.363  -0.251  1.00  0.00     0.030 C 
HETATM    3  C   UNL     1       0.874  -3.164   0.427  1.00  0.00     0.016 C 
HETATM    4  C   UNL     1      -0.408  -2.661   0.654  1.00  0.00    -0.005 C 
HETATM    5  C   UNL     1      -0.687  -1.316   0.417  1.00  0.00     0.016 C 
HETATM    6  C   UNL     1       0.232  -0.502  -0.162  1.00  0.00     0.030 C 
ENDROOT
BRANCH   1   7
HETATM    7  N   UNL     1       2.131  -0.351  -1.618  1.00  0.00    -0.320 N 
HETATM    8  C   UNL     1       2.047   1.009  -1.586  1.00  0.00     0.253 C 
HETATM    9  O   UNL     1       1.627   1.748  -2.433  1.00  0.00    -0.263 OA
HETATM   10  H   UNL     1       3.059  -0.699  -1.800  1.00  0.00     0.169 HD
BRANCH   8  11
HETATM   11  S   UNL     1       2.598   1.500   0.000  1.00  0.00    -0.213 SA
HETATM   12  C   UNL     1       2.598   2.500   0.000  1.00  0.00     0.276 C 
ENDBRANCH   8  11
ENDBRANCH   1   7
BRANCH   4  13
HETATM   13  C   UNL     1      -1.602  -3.488   0.769  1.00  0.00     0.088 C 
HETATM   14  N   UNL     1      -2.708  -2.921   1.272  1.00  0.00    -0.173 NA
HETATM   15  N   UNL     1      -3.544  -2.965   0.224  1.00  0.00    -0.285 N 
HETATM   16  C   UNL     1      -3.156  -3.873  -0.717  1.00  0.00     0.114 C 
HETATM   17  C   UNL     1      -4.726  -2.141   0.272  1.00  0.00     0.179 C 
HETATM   18  C   UNL     1      -1.995  -4.436  -0.216  1.00  0.00     0.053 C 
ENDBRANCH   4  13
TORSDOF 3
