REMARK  5 active torsions:
REMARK  status: ('A' for Active; 'I' for Inactive)
REMARK    1  A    between atoms: O_2  and  C_3 
REMARK    2  A    between atoms: C_3  and  C_5 
REMARK    3  A    between atoms: C_5  and  N_15 
REMARK    4  A    between atoms: C_6  and  C_7 
REMARK    5  A    between atoms: C_8  and  C_9 
ROOT
HETATM    1  C   UNL     1      -1.339   0.986  -0.064  1.00  0.00     0.134 C 
HETATM    2  C   UNL     1      -2.614   0.584  -0.268  1.00  0.00     0.038 C 
ENDROOT
BRANCH   1   3
HETATM    3  C   UNL     1      -1.183   2.485  -0.013  1.00  0.00     0.311 C 
HETATM    4  O   UNL     1      -2.103   3.292   0.030  1.00  0.00    -0.258 OA
BRANCH   3   5
HETATM    5  O   UNL     1       0.121   2.815  -0.157  1.00  0.00    -0.321 OA
HETATM    6  C   UNL     1       0.405   4.165  -0.519  1.00  0.00     0.213 C 
ENDBRANCH   3   5
ENDBRANCH   1   3
BRANCH   1   7
HETATM    7  N   UNL     1      -0.209   0.146   0.001  1.00  0.00    -0.219 N 
HETATM    8  N   UNL     1      -0.051  -1.075  -0.598  1.00  0.00    -0.061 NA
HETATM    9  N   UNL     1       1.225  -1.410  -0.595  1.00  0.00    -0.135 NA
HETATM   10  C   UNL     1       1.904  -0.495   0.150  1.00  0.00     0.072 C 
HETATM   11  C   UNL     1       1.000   0.415   0.642  1.00  0.00     0.149 C 
HETATM   12  C   UNL     1       3.367  -0.561   0.327  1.00  0.00     0.074 C 
ENDBRANCH   1   7
BRANCH   2  13
HETATM   13  C   UNL     1      -3.114  -0.774  -0.399  1.00  0.00     0.003 C 
HETATM   14  C   UNL     1      -4.389  -1.179  -0.268  1.00  0.00     0.011 C 
BRANCH  14  15
HETATM   15  C   UNL     1      -5.576  -0.406   0.126  1.00  0.00    -0.036 A 
HETATM   16  C   UNL     1      -5.562   0.483   1.207  1.00  0.00     0.011 A 
HETATM   17  C   UNL     1      -6.722   1.162   1.589  1.00  0.00     0.001 A 
HETATM   18  C   UNL     1      -7.920   0.926   0.917  1.00  0.00     0.000 A 
HETATM   19  C   UNL     1      -7.956   0.016  -0.136  1.00  0.00     0.001 A 
HETATM   20  C   UNL     1      -6.791  -0.651  -0.528  1.00  0.00     0.011 A 
ENDBRANCH  14  15
ENDBRANCH   2  13
TORSDOF 5
