REMARK  11 active torsions:
REMARK  status: ('A' for Active; 'I' for Inactive)
REMARK    1  A    between atoms: C_2  and  C_4 
REMARK    2  A    between atoms: C_4  and  C_5 
REMARK    3  A    between atoms: C_5  and  C_7 
REMARK    4  A    between atoms: C_7  and  O_8 
REMARK    5  A    between atoms: C_7  and  C_9 
REMARK    6  A    between atoms: C_9  and  C_11 
REMARK    7  A    between atoms: C_11  and  C_12 
REMARK    8  A    between atoms: C_11  and  C_15 
REMARK    9  A    between atoms: C_12  and  C_13 
REMARK   10  A    between atoms: C_13  and  O_14 
REMARK   11  A    between atoms: C_15  and  C_17 
ROOT
HETATM    1  C   UNL     1       0.102   0.137  -0.045  1.00  0.00     0.031 A 
HETATM    2  C   UNL     1       0.018  -1.252  -0.223  1.00  0.00     0.017 A 
HETATM    3  C   UNL     1       1.154  -2.062  -0.134  1.00  0.00     0.001 A 
HETATM    4  C   UNL     1       2.398  -1.493   0.105  1.00  0.00     0.002 A 
HETATM    5  C   UNL     1       2.503  -0.112   0.266  1.00  0.00     0.024 A 
HETATM    6  C   UNL     1       1.363   0.711   0.195  1.00  0.00     0.058 A 
HETATM    7  C   UNL     1       1.544   2.117   0.418  1.00  0.00     0.100 C 
HETATM    8  N   UNL     1       1.748   3.237   0.652  1.00  0.00    -0.191 NA
ENDROOT
BRANCH   1   9
HETATM    9  C   UNL     1      -1.109   1.009  -0.194  1.00  0.00     0.172 C 
HETATM   10  O   UNL     1      -1.004   2.013  -0.895  1.00  0.00    -0.291 OA
BRANCH   9  11
HETATM   11  C   UNL     1      -2.382   0.703   0.596  1.00  0.00     0.135 C 
BRANCH  11  12
HETATM   12  C   UNL     1      -2.962  -0.670   0.334  1.00  0.00     0.174 C 
HETATM   13  O   UNL     1      -2.986  -1.494   1.251  1.00  0.00    -0.294 OA
BRANCH  12  14
HETATM   14  C   UNL     1      -3.578  -0.966  -1.034  1.00  0.00     0.258 C 
BRANCH  14  15
HETATM   15  C   UNL     1      -3.838  -2.449  -1.271  1.00  0.00     0.169 C 
HETATM   16  O   UNL     1      -3.345  -3.002  -2.261  1.00  0.00    -0.294 OA
BRANCH  15  17
HETATM   17  C   UNL     1      -4.806  -3.166  -0.367  1.00  0.00     0.159 C 
BRANCH  17  18
HETATM   18  C   UNL     1      -4.348  -4.562  -0.042  1.00  0.00     0.130 C 
HETATM   19  C   UNL     1      -5.338  -5.669  -0.280  1.00  0.00     0.091 C 
HETATM   20  O   UNL     1      -3.225  -4.787   0.412  1.00  0.00    -0.298 OA
ENDBRANCH  17  18
ENDBRANCH  15  17
ENDBRANCH  14  15
BRANCH  14  21
HETATM   21  O   UNL     1      -2.751  -0.472  -2.080  1.00  0.00    -0.380 OA
HETATM   22  H   UNL     1      -2.507  -1.237  -2.647  1.00  0.00     0.211 HD
ENDBRANCH  14  21
ENDBRANCH  12  14
ENDBRANCH  11  12
BRANCH  11  23
HETATM   23  C   UNL     1      -3.469   1.778   0.388  1.00  0.00     0.046 C 
BRANCH  23  24
HETATM   24  C   UNL     1      -4.766   1.496   1.150  1.00  0.00     0.165 C 
BRANCH  24  25
HETATM   25  O   UNL     1      -5.712   2.528   0.917  1.00  0.00    -0.401 OA
HETATM   26  H   UNL     1      -5.835   2.626  -0.043  1.00  0.00     0.209 HD
ENDBRANCH  24  25
ENDBRANCH  23  24
ENDBRANCH  11  23
ENDBRANCH   9  11
ENDBRANCH   1   9
TORSDOF 11
