REMARK  5 active torsions:
REMARK  status: ('A' for Active; 'I' for Inactive)
REMARK    1  A    between atoms: C_5  and  N_6 
REMARK       I    between atoms: N_6  and  C_7 
REMARK    2  A    between atoms: C_7  and  O_9 
REMARK    3  A    between atoms: O_9  and  C_10 
REMARK    4  A    between atoms: C_18  and  C_20 
REMARK    5  A    between atoms: C_20  and  N_21 
ROOT
HETATM    1  N   UNL     1      -0.196   3.260  -0.989  1.00  0.00    -0.247 NA
HETATM    2  C   UNL     1      -0.609   4.000  -1.796  1.00  0.00     0.332 C 
HETATM    3  O   UNL     1      -1.022   4.740  -2.612  1.00  0.00    -0.260 OA
ENDROOT
BRANCH   1   4
HETATM    4  C   UNL     1      -0.494   1.840  -1.262  1.00  0.00     0.162 C 
BRANCH   4   5
HETATM    5  C   UNL     1       0.000   1.000   0.000  1.00  0.00    -0.023 C 
HETATM    6  C   UNL     1      -1.127   1.205   1.061  1.00  0.00     0.036 C 
HETATM    7  C   UNL     1      -2.567   0.642   0.615  1.00  0.00     0.088 C 
HETATM    8  C   UNL     1      -2.512  -0.520  -0.398  1.00  0.00     0.034 C 
HETATM    9  C   UNL     1      -1.409  -1.503  -0.176  1.00  0.00    -0.045 C 
HETATM   10  C   UNL     1      -1.382  -2.583  -1.288  1.00  0.00     0.015 C 
HETATM   11  C   UNL     1      -0.119  -0.719  -0.258  1.00  0.00     0.019 C 
HETATM   12  C   UNL     1      -1.595  -2.252   1.158  1.00  0.00     0.015 C 
HETATM   13  C   UNL     1       1.000   1.000   0.000  1.00  0.00     0.017 C 
BRANCH   7  14
HETATM   14  N   UNL     1      -3.452   1.710   0.120  1.00  0.00    -0.332 N 
HETATM   15  C   UNL     1      -4.548   1.666  -0.719  1.00  0.00     0.366 C 
HETATM   16  O   UNL     1      -5.031   2.715  -1.132  1.00  0.00    -0.238 OA
HETATM   17  H   UNL     1      -3.328   2.639   0.503  1.00  0.00     0.165 HD
BRANCH  15  18
HETATM   18  O   UNL     1      -4.895   0.435  -1.204  1.00  0.00    -0.256 OA
BRANCH  18  19
HETATM   19  C   UNL     1      -5.990  -0.268  -0.630  1.00  0.00     0.148 C 
HETATM   20  C   UNL     1      -7.223   0.399  -0.137  1.00  0.00     0.187 C 
HETATM   21  C   UNL     1      -8.319  -0.478   0.414  1.00  0.00     0.112 C 
HETATM   22  O   UNL     1      -7.345   1.617  -0.116  1.00  0.00    -0.290 OA
HETATM   23  C   UNL     1      -8.176  -1.914  -0.040  1.00  0.00     0.182 C 
HETATM   24  O   UNL     1      -6.852  -2.418   0.097  1.00  0.00    -0.360 OA
HETATM   25  C   UNL     1      -5.919  -1.597  -0.474  1.00  0.00     0.175 C 
ENDBRANCH  18  19
ENDBRANCH  15  18
ENDBRANCH   7  14
ENDBRANCH   4   5
ENDBRANCH   1   4
TORSDOF 5
