REMARK  3 active torsions:
REMARK  status: ('A' for Active; 'I' for Inactive)
REMARK    1  A    between atoms: S_2  and  C_3 
REMARK    2  A    between atoms: C_3  and  C_4 
REMARK    3  A    between atoms: C_4  and  N_5 
ROOT
HETATM    1  N   UNL     1      -0.118  -1.587  -0.268  1.00  0.00    -0.366 N 
HETATM    2  C   UNL     1      -0.014  -2.824   0.272  1.00  0.00     0.090 A 
HETATM    3  C   UNL     1      -1.153  -3.590   0.506  1.00  0.00     0.017 A 
HETATM    4  C   UNL     1      -2.403  -3.073   0.184  1.00  0.00     0.003 A 
HETATM    5  C   UNL     1      -2.492  -1.805  -0.372  1.00  0.00     0.017 A 
HETATM    6  C   UNL     1      -1.331  -1.077  -0.597  1.00  0.00     0.090 A 
ENDROOT
BRANCH   1   7
HETATM    7  C   UNL     1       1.099  -0.770  -0.514  1.00  0.00     0.138 C 
BRANCH   7   8
HETATM    8  C   UNL     1       1.277   0.227   0.631  1.00  0.00     0.093 C 
BRANCH   8   9
HETATM    9  S   UNL     1       2.207   1.711   0.140  1.00  0.00    -0.172 SA
HETATM   10  C   UNL     1       3.849   1.001  -0.146  1.00  0.00     0.089 C 
ENDBRANCH   8   9
ENDBRANCH   7   8
ENDBRANCH   1   7
TORSDOF 3
