REMARK  7 active torsions:
REMARK  status: ('A' for Active; 'I' for Inactive)
REMARK    1  A    between atoms: O_2  and  C_3 
REMARK    2  A    between atoms: C_3  and  C_5 
REMARK    3  A    between atoms: C_5  and  N_7 
REMARK    4  A    between atoms: C_5  and  C_18 
REMARK    5  A    between atoms: N_7  and  C_8 
REMARK    6  A    between atoms: C_8  and  O_10 
REMARK    7  A    between atoms: O_10  and  C_11 
ROOT
HETATM    1  C   UNL     1       0.866   1.500   0.000  1.00  0.00     0.145 C 
HETATM    2  C   UNL     1       1.185   1.799  -1.730  1.00  0.00     0.055 C 
ENDROOT
BRANCH   1   3
HETATM    3  C   UNL     1       0.366   2.366   0.000  1.00  0.00     0.291 C 
HETATM    4  O   UNL     1       0.919   3.479  -0.145  1.00  0.00    -0.262 OA
BRANCH   3   5
HETATM    5  O   UNL     1      -0.922   2.515   0.492  1.00  0.00    -0.324 OA
HETATM    6  C   UNL     1      -1.641   3.692   0.111  1.00  0.00     0.213 C 
ENDBRANCH   3   5
ENDBRANCH   1   3
BRANCH   1   7
HETATM    7  N   UNL     1       1.366   0.634   0.000  1.00  0.00    -0.339 N 
HETATM    8  H   UNL     1       1.519  -0.031  -0.761  1.00  0.00     0.164 HD
BRANCH   7   9
HETATM    9  C   UNL     1       2.446   0.405   0.856  1.00  0.00     0.216 C 
HETATM   10  S   UNL     1       2.742   1.062   2.370  1.00  0.00    -0.033 SA
BRANCH   9  11
HETATM   11  O   UNL     1       3.140  -0.687   0.404  1.00  0.00    -0.281 OA
BRANCH  11  12
HETATM   12  C   UNL     1       4.563  -0.710   0.281  1.00  0.00     0.128 C 
HETATM   13  C   UNL     1       5.315   0.392  -0.337  1.00  0.00     0.227 C 
HETATM   14  C   UNL     1       6.659   0.348  -0.182  1.00  0.00     0.192 C 
HETATM   15  O   UNL     1       4.607   1.232  -0.939  1.00  0.00    -0.283 OA
HETATM   16  O   UNL     1       7.386  -0.665   0.389  1.00  0.00    -0.355 OA
HETATM   17  C   UNL     1       6.696  -1.923   0.455  1.00  0.00     0.205 C 
HETATM   18  C   UNL     1       5.221  -1.828   0.625  1.00  0.00     0.041 C 
ENDBRANCH  11  12
ENDBRANCH   9  11
ENDBRANCH   7   9
ENDBRANCH   1   7
BRANCH   1  19
HETATM   19  C   UNL     1      -0.554   0.359  -0.167  1.00  0.00    -0.021 A 
HETATM   20  C   UNL     1      -0.699  -0.691   0.792  1.00  0.00     0.010 A 
HETATM   21  C   UNL     1      -1.649  -1.694   0.610  1.00  0.00     0.001 A 
HETATM   22  C   UNL     1      -2.515  -1.641  -0.480  1.00  0.00     0.000 A 
HETATM   23  C   UNL     1      -2.427  -0.594  -1.400  1.00  0.00     0.001 A 
HETATM   24  C   UNL     1      -1.443   0.391  -1.268  1.00  0.00     0.010 A 
ENDBRANCH   1  19
TORSDOF 7
