REMARK  3 active torsions:
REMARK  status: ('A' for Active; 'I' for Inactive)
REMARK    1  A    between atoms: N_4  and  C_5 
REMARK    2  A    between atoms: C_9  and  N_10 
REMARK       I    between atoms: N_10  and  C_11 
REMARK    3  A    between atoms: C_11  and  C_13 
ROOT
HETATM    1  C   UNL     1      -3.526   0.555  -0.112  1.00  0.00     0.225 A 
HETATM    2  N   UNL     1      -4.506  -0.345  -0.095  1.00  0.00    -0.081 NA
HETATM    3  O   UNL     1      -5.664   0.444  -0.077  1.00  0.00    -0.103 OA
HETATM    4  N   UNL     1      -5.352   1.801  -0.076  1.00  0.00    -0.083 NA
HETATM    5  C   UNL     1      -4.021   1.871  -0.099  1.00  0.00     0.210 A 
ENDROOT
BRANCH   1   6
HETATM    6  N   UNL     1      -2.173   0.165  -0.096  1.00  0.00    -0.224 N 
HETATM    7  C   UNL     1      -1.640  -1.103  -0.024  1.00  0.00     0.144 A 
HETATM    8  C   UNL     1      -0.281  -0.911   0.080  1.00  0.00     0.065 A 
HETATM    9  C   UNL     1       0.801  -1.896   0.265  1.00  0.00     0.073 C 
HETATM   10  N   UNL     1      -0.011   0.427   0.009  1.00  0.00    -0.163 NA
HETATM   11  N   UNL     1      -1.158   1.075  -0.110  1.00  0.00     0.011 NA
ENDBRANCH   1   6
BRANCH   5  12
HETATM   12  N   UNL     1      -3.242   3.020  -0.096  1.00  0.00    -0.306 N 
HETATM   13  C   UNL     1      -3.725   4.311   0.012  1.00  0.00     0.237 C 
HETATM   14  O   UNL     1      -4.904   4.619   0.151  1.00  0.00    -0.272 OA
HETATM   15  H   UNL     1      -2.238   2.863  -0.135  1.00  0.00     0.170 HD
BRANCH  13  16
HETATM   16  C   UNL     1      -2.595   5.331   0.012  1.00  0.00     0.217 C 
HETATM   17 CL   UNL     1      -3.120   6.877  -0.673  1.00  0.00    -0.121 Cl
ENDBRANCH  13  16
ENDBRANCH   5  12
TORSDOF 3
