REMARK  18 active torsions:
REMARK  status: ('A' for Active; 'I' for Inactive)
REMARK    1  A    between atoms: C_2  and  C_4 
REMARK    2  A    between atoms: C_4  and  C_5 
REMARK    3  A    between atoms: C_5  and  C_7 
REMARK    4  A    between atoms: C_7  and  O_8 
REMARK    5  A    between atoms: C_7  and  C_25 
REMARK    6  A    between atoms: O_8  and  C_9 
REMARK    7  A    between atoms: C_9  and  C_10 
REMARK    8  A    between atoms: C_10  and  O_11 
REMARK    9  A    between atoms: C_10  and  C_12 
REMARK   10  A    between atoms: C_12  and  O_13 
REMARK   11  A    between atoms: O_13  and  N_14 
REMARK   12  A    between atoms: C_25  and  C_27 
REMARK   13  A    between atoms: C_27  and  C_28 
REMARK   14  A    between atoms: C_27  and  C_31 
REMARK   15  A    between atoms: C_28  and  C_29 
REMARK   16  A    between atoms: C_29  and  O_30 
REMARK   17  A    between atoms: C_31  and  C_33 
REMARK   18  A    between atoms: C_38  and  O_39 
ROOT
HETATM    1  C   UNL     1       3.161  -2.306  -0.134  1.00  0.00     0.261 C 
ENDROOT
BRANCH   1   2
HETATM    2  C   UNL     1       3.845  -2.681   1.213  1.00  0.00     0.169 C 
HETATM    3  O   UNL     1       4.088  -1.847   2.078  1.00  0.00    -0.294 OA
BRANCH   2   4
HETATM    4  C   UNL     1       4.253  -4.121   1.477  1.00  0.00     0.159 C 
BRANCH   4   5
HETATM    5  C   UNL     1       4.377  -5.020   0.279  1.00  0.00     0.130 C 
HETATM    6  C   UNL     1       3.222  -5.913  -0.052  1.00  0.00     0.091 C 
HETATM    7  O   UNL     1       5.372  -5.004  -0.441  1.00  0.00    -0.298 OA
ENDBRANCH   4   5
ENDBRANCH   2   4
ENDBRANCH   1   2
BRANCH   1   8
HETATM    8  O   UNL     1       3.823  -1.565  -1.160  1.00  0.00    -0.368 OA
BRANCH   8   9
HETATM    9  C   UNL     1       5.227  -1.856  -1.353  1.00  0.00     0.203 C 
BRANCH   9  10
HETATM   10  C   UNL     1       6.062  -1.500   0.000  1.00  0.00     0.168 C 
BRANCH  10  11
HETATM   11  O   UNL     1       7.473  -1.913   0.186  1.00  0.00    -0.391 OA
HETATM   12  H   UNL     1       7.896  -1.647  -0.655  1.00  0.00     0.210 HD
ENDBRANCH  10  11
BRANCH  10  13
HETATM   13  C   UNL     1       6.062  -0.500   0.000  1.00  0.00     0.237 C 
BRANCH  13  14
HETATM   14  O   UNL     1       6.842   0.302  -1.020  1.00  0.00    -0.254 OA
BRANCH  14  15
HETATM   15  N   UNL     1       8.114  -0.254  -1.346  1.00  0.00    -0.138 NA
HETATM   16  C   UNL     1       9.117   0.328  -0.741  1.00  0.00     0.072 C 
HETATM   17  C   UNL     1      10.442  -0.376  -0.663  1.00  0.00    -0.003 A 
HETATM   18  C   UNL     1       9.003   1.596   0.077  1.00  0.00     0.063 C 
HETATM   19  C   UNL     1      11.562   0.314  -0.187  1.00  0.00    -0.046 A 
HETATM   20  C   UNL     1      10.525  -1.764  -0.872  1.00  0.00     0.014 A 
HETATM   21  C   UNL     1      11.566   1.803   0.009  1.00  0.00     0.040 C 
HETATM   22  C   UNL     1      12.733  -0.407   0.119  1.00  0.00     0.008 A 
HETATM   23  C   UNL     1      10.212   2.496  -0.124  1.00  0.00     0.011 C 
HETATM   24  C   UNL     1      12.784  -1.793  -0.032  1.00  0.00     0.001 A 
HETATM   25  C   UNL     1      11.683  -2.471  -0.538  1.00  0.00     0.001 A 
ENDBRANCH  14  15
ENDBRANCH  13  14
ENDBRANCH  10  13
ENDBRANCH   9  10
ENDBRANCH   8   9
ENDBRANCH   1   8
BRANCH   1  26
HETATM   26  C   UNL     1       1.860  -1.507   0.147  1.00  0.00     0.174 C 
HETATM   27  O   UNL     1       1.772  -0.678   1.050  1.00  0.00    -0.294 OA
BRANCH  26  28
HETATM   28  C   UNL     1       0.669  -1.837  -0.742  1.00  0.00     0.135 C 
BRANCH  28  29
HETATM   29  C   UNL     1       0.273  -3.288  -0.333  1.00  0.00     0.046 C 
BRANCH  29  30
HETATM   30  C   UNL     1      -1.175  -3.746  -0.349  1.00  0.00     0.165 C 
BRANCH  30  31
HETATM   31  O   UNL     1      -1.900  -3.110   0.689  1.00  0.00    -0.401 OA
HETATM   32  H   UNL     1      -2.201  -2.253   0.314  1.00  0.00     0.209 HD
ENDBRANCH  30  31
ENDBRANCH  29  30
ENDBRANCH  28  29
BRANCH  28  33
HETATM   33  C   UNL     1      -0.463  -0.800  -0.794  1.00  0.00     0.173 C 
HETATM   34  O   UNL     1      -1.608  -1.166  -1.076  1.00  0.00    -0.291 OA
BRANCH  33  35
HETATM   35  C   UNL     1      -0.216   0.681  -0.706  1.00  0.00     0.044 A 
HETATM   36  C   UNL     1      -1.239   1.551  -0.283  1.00  0.00     0.079 A 
HETATM   37  C   UNL     1      -1.040   2.937  -0.241  1.00  0.00     0.037 A 
HETATM   38  C   UNL     1       0.190   3.472  -0.611  1.00  0.00     0.003 A 
HETATM   39  C   UNL     1       1.210   2.628  -1.045  1.00  0.00     0.001 A 
HETATM   40  C   UNL     1       1.004   1.246  -1.115  1.00  0.00     0.018 A 
BRANCH  36  41
HETATM   41  O   UNL     1      -2.454   1.065   0.117  1.00  0.00    -0.360 OA
HETATM   42  H   UNL     1      -3.099   1.790   0.149  1.00  0.00     0.217 HD
ENDBRANCH  36  41
ENDBRANCH  33  35
ENDBRANCH  28  33
ENDBRANCH  26  28
ENDBRANCH   1  26
TORSDOF 18
