REMARK  5 active torsions:
REMARK  status: ('A' for Active; 'I' for Inactive)
REMARK    1  A    between atoms: O_2  and  C_3 
REMARK    2  A    between atoms: C_6  and  N_7 
REMARK       I    between atoms: N_7  and  C_8 
REMARK    3  A    between atoms: C_8  and  O_10 
REMARK    4  A    between atoms: O_10  and  C_11 
REMARK    5  A    between atoms: C_18  and  O_19 
ROOT
HETATM    1  N   UNL     1      -3.802   1.477  -0.157  1.00  0.00    -0.300 N 
HETATM    2  C   UNL     1      -5.027   0.898  -0.441  1.00  0.00     0.370 C 
HETATM    3  O   UNL     1      -5.997   1.560  -0.789  1.00  0.00    -0.238 OA
HETATM    4  H   UNL     1      -3.735   2.430  -0.491  1.00  0.00     0.171 HD
ENDROOT
BRANCH   1   5
HETATM    5  C   UNL     1      -2.602   0.787   0.129  1.00  0.00     0.070 C 
HETATM    6  C   UNL     1      -2.589  -0.478   0.732  1.00  0.00     0.035 C 
HETATM    7  C   UNL     1      -1.446  -1.274   0.716  1.00  0.00     0.039 C 
HETATM    8  C   UNL     1      -0.279  -0.778   0.146  1.00  0.00     0.070 C 
HETATM    9  C   UNL     1      -0.233   0.554  -0.290  1.00  0.00     0.075 C 
HETATM   10  C   UNL     1      -1.384   1.345  -0.273  1.00  0.00     0.097 C 
BRANCH   8  11
HETATM   11  O   UNL     1       0.866  -1.500   0.000  1.00  0.00    -0.356 OA
HETATM   12  C   UNL     1       0.866  -2.500   0.000  1.00  0.00     0.210 C 
ENDBRANCH   8  11
BRANCH  10  13
HETATM   13  O   UNL     1      -1.311   2.604  -0.807  1.00  0.00    -0.354 OA
HETATM   14  C   UNL     1      -1.426   3.614   0.200  1.00  0.00     0.210 C 
ENDBRANCH  10  13
ENDBRANCH   1   5
BRANCH   2  15
HETATM   15  O   UNL     1      -4.969  -0.461  -0.432  1.00  0.00    -0.256 OA
BRANCH  15  16
HETATM   16  C   UNL     1      -6.084  -1.299  -0.471  1.00  0.00     0.148 C 
HETATM   17  C   UNL     1      -7.326  -1.011   0.287  1.00  0.00     0.187 C 
HETATM   18  C   UNL     1      -8.488  -1.914  -0.028  1.00  0.00     0.112 C 
HETATM   19  O   UNL     1      -7.387  -0.131   1.133  1.00  0.00    -0.290 OA
HETATM   20  C   UNL     1      -7.943  -3.329  -0.059  1.00  0.00     0.182 C 
HETATM   21  O   UNL     1      -6.926  -3.495  -1.056  1.00  0.00    -0.360 OA
HETATM   22  C   UNL     1      -5.992  -2.495  -1.065  1.00  0.00     0.175 C 
ENDBRANCH  15  16
ENDBRANCH   2  15
TORSDOF 5
