REMARK  6 active torsions:
REMARK  status: ('A' for Active; 'I' for Inactive)
REMARK    1  A    between atoms: O_2  and  C_3 
REMARK    2  A    between atoms: C_6  and  C_7 
REMARK    3  A    between atoms: C_7  and  C_8 
REMARK    4  A    between atoms: C_8  and  N_9 
REMARK    5  A    between atoms: C_8  and  C_10 
REMARK    6  A    between atoms: C_10  and  S_12 
ROOT
HETATM    1  C   UNL     1       0.346   3.199   0.521  1.00  0.00     0.082 C 
ENDROOT
BRANCH   1   2
HETATM    2  C   UNL     1       0.536   1.696   0.516  1.00  0.00    -0.056 A 
HETATM    3  C   UNL     1       0.168   0.961   1.654  1.00  0.00     0.010 A 
HETATM    4  C   UNL     1       0.171  -0.437   1.626  1.00  0.00     0.037 A 
HETATM    5  C   UNL     1       0.567  -1.094   0.469  1.00  0.00     0.068 A 
HETATM    6  C   UNL     1       1.051  -0.385  -0.626  1.00  0.00     0.037 A 
HETATM    7  C   UNL     1       1.021   1.017  -0.612  1.00  0.00     0.010 A 
BRANCH   5   8
HETATM    8  O   UNL     1       0.505  -2.459   0.386  1.00  0.00    -0.356 OA
HETATM    9  C   UNL     1      -0.845  -2.890   0.211  1.00  0.00     0.210 C 
ENDBRANCH   5   8
ENDBRANCH   1   2
BRANCH   1  10
HETATM   10  C   UNL     1      -1.026   3.779   0.082  1.00  0.00     0.299 C 
BRANCH  10  11
HETATM   11  N   UNL     1      -1.029   5.210   0.499  1.00  0.00     0.091 N 
HETATM   12  H   UNL     1      -0.471   5.766  -0.146  1.00  0.00     0.313 HD
HETATM   13  H   UNL     1      -1.988   5.566   0.464  1.00  0.00     0.313 HD
ENDBRANCH  10  11
BRANCH  10  14
HETATM   14  C   UNL     1      -2.352   3.096   0.589  1.00  0.00     0.188 C 
HETATM   15  O   UNL     1      -3.228   3.692   1.210  1.00  0.00    -0.286 OA
BRANCH  14  16
HETATM   16  S   UNL     1      -2.598   1.500   0.000  1.00  0.00    -0.230 SA
HETATM   17  C   UNL     1      -3.464   1.000   0.000  1.00  0.00     0.270 C 
ENDBRANCH  14  16
ENDBRANCH  10  14
ENDBRANCH   1  10
TORSDOF 6
