REMARK  11 active torsions:
REMARK  status: ('A' for Active; 'I' for Inactive)
REMARK    1  A    between atoms: C_3  and  C_4 
REMARK    2  A    between atoms: C_4  and  C_5 
REMARK    3  A    between atoms: C_5  and  C_6 
REMARK    4  A    between atoms: C_7  and  C_8 
REMARK    5  A    between atoms: C_8  and  C_9 
REMARK    6  A    between atoms: C_9  and  C_11 
REMARK    7  A    between atoms: C_11  and  O_12 
REMARK    8  A    between atoms: C_11  and  C_13 
REMARK    9  A    between atoms: C_13  and  O_14 
REMARK   10  A    between atoms: C_13  and  C_22 
REMARK   11  A    between atoms: O_14  and  C_15 
REMARK       I    between atoms: C_22  and  N_23 
ROOT
HETATM    1  C   UNL     1       2.598   0.500   0.000  1.00  0.00     0.256 C 
ENDROOT
BRANCH   1   2
HETATM    2  C   UNL     1       2.598   1.500   0.000  1.00  0.00     0.226 C 
BRANCH   2   3
HETATM    3  C   UNL     1       3.162   1.743  -1.478  1.00  0.00     0.161 C 
HETATM    4  O   UNL     1       2.466   1.573  -2.487  1.00  0.00    -0.295 OA
BRANCH   3   5
HETATM    5  C   UNL     1       4.581   2.215  -1.611  1.00  0.00     0.108 C 
BRANCH   5   6
HETATM    6  C   UNL     1       4.876   3.372  -0.715  1.00  0.00    -0.023 C 
HETATM    7  C   UNL     1       5.681   3.169   0.337  1.00  0.00    -0.030 C 
BRANCH   7   8
HETATM    8  C   UNL     1       6.971   3.922   0.277  1.00  0.00     0.030 C 
BRANCH   8   9
HETATM    9  C   UNL     1       7.789   3.214  -0.827  1.00  0.00     0.030 C 
BRANCH   9  10
HETATM   10  C   UNL     1       9.041   2.720  -0.249  1.00  0.00    -0.031 C 
HETATM   11  C   UNL     1       9.526   1.500   0.000  1.00  0.00    -0.035 C 
HETATM   12  C   UNL     1       9.526   0.500   0.000  1.00  0.00     0.036 C 
ENDBRANCH   9  10
ENDBRANCH   8   9
ENDBRANCH   7   8
ENDBRANCH   5   6
ENDBRANCH   3   5
ENDBRANCH   2   3
BRANCH   2  13
HETATM   13  O   UNL     1       1.086   1.941  -0.418  1.00  0.00    -0.385 OA
HETATM   14  H   UNL     1       0.992   1.651  -1.360  1.00  0.00     0.210 HD
ENDBRANCH   2  13
ENDBRANCH   1   2
BRANCH   1  15
HETATM   15  O   UNL     1       1.493  -0.363  -0.511  1.00  0.00    -0.328 OA
BRANCH  15  16
HETATM   16  C   UNL     1       0.237  -0.402   0.101  1.00  0.00     0.137 C 
HETATM   17  C   UNL     1      -0.848  -1.144  -0.619  1.00  0.00     0.186 C 
HETATM   18  C   UNL     1      -2.266  -0.965  -0.137  1.00  0.00     0.112 C 
HETATM   19  O   UNL     1      -0.573  -1.920  -1.531  1.00  0.00    -0.290 OA
HETATM   20  C   UNL     1      -2.371   0.389   0.530  1.00  0.00     0.182 C 
HETATM   21  O   UNL     1      -1.457   0.448   1.632  1.00  0.00    -0.360 OA
HETATM   22  C   UNL     1      -0.158   0.245   1.215  1.00  0.00     0.175 C 
ENDBRANCH  15  16
ENDBRANCH   1  15
BRANCH   1  23
HETATM   23  C   UNL     1       3.857  -0.419  -0.082  1.00  0.00     0.248 C 
HETATM   24  N   UNL     1       3.697  -1.618  -0.714  1.00  0.00    -0.368 N 
HETATM   25  H   UNL     1       2.777  -1.913  -1.035  1.00  0.00     0.159 HD
HETATM   26  H   UNL     1       4.447  -2.295  -0.697  1.00  0.00     0.159 HD
HETATM   27  O   UNL     1       4.927  -0.137   0.451  1.00  0.00    -0.271 OA
ENDBRANCH   1  23
TORSDOF 11
