REMARK  4 active torsions:
REMARK  status: ('A' for Active; 'I' for Inactive)
REMARK    1  A    between atoms: N_4  and  C_5 
REMARK       I    between atoms: N_7  and  C_8 
REMARK    2  A    between atoms: C_8  and  O_10 
REMARK    3  A    between atoms: O_10  and  C_11 
REMARK    4  A    between atoms: C_16  and  O_17 
ROOT
HETATM    1  C   UNL     1      -2.684   1.091   0.395  1.00  0.00     0.154 C 
HETATM    2  C   UNL     1      -3.783   0.084   0.109  1.00  0.00     0.157 C 
HETATM    3  N   UNL     1      -4.979   0.721   0.576  1.00  0.00    -0.323 N 
HETATM    4  C   UNL     1      -5.766   0.117   1.535  1.00  0.00     0.363 C 
HETATM    5  O   UNL     1      -6.284   0.724   2.463  1.00  0.00    -0.238 OA
HETATM    6  C   UNL     1      -4.806   2.174   0.516  1.00  0.00     0.162 C 
HETATM    7  C   UNL     1      -3.368   2.396  -0.023  1.00  0.00     0.162 C 
ENDROOT
BRANCH   4   8
HETATM    8  O   UNL     1      -5.862  -1.240   1.434  1.00  0.00    -0.294 OA
BRANCH   8   9
HETATM    9  C   UNL     1      -6.414  -1.900   0.253  1.00  0.00     0.061 C 
HETATM   10  C   UNL     1      -7.402  -2.952   0.788  1.00  0.00     0.046 C 
HETATM   11  C   UNL     1      -5.291  -2.648  -0.484  1.00  0.00     0.046 C 
HETATM   12  C   UNL     1      -7.184  -0.952  -0.679  1.00  0.00     0.046 C 
ENDBRANCH   8   9
ENDBRANCH   4   8
BRANCH   1  13
HETATM   13  N   UNL     1      -1.423   0.756  -0.217  1.00  0.00    -0.274 N 
HETATM   14  C   UNL     1      -1.121  -0.418  -0.859  1.00  0.00     0.136 C 
HETATM   15  C   UNL     1       0.149  -0.705  -0.416  1.00  0.00     0.065 C 
HETATM   16  C   UNL     1       0.882  -1.983  -0.479  1.00  0.00     0.073 C 
HETATM   17  N   UNL     1       0.653   0.395   0.224  1.00  0.00    -0.164 NA
HETATM   18  N   UNL     1      -0.305   1.311   0.287  1.00  0.00     0.005 NA
ENDBRANCH   1  13
BRANCH   7  19
HETATM   19  O   UNL     1      -2.782   3.540   0.576  1.00  0.00    -0.392 OA
HETATM   20  H   UNL     1      -1.817   3.500   0.452  1.00  0.00     0.210 HD
ENDBRANCH   7  19
TORSDOF 4
