REMARK  8 active torsions:
REMARK  status: ('A' for Active; 'I' for Inactive)
REMARK    1  A    between atoms: C_2  and  C_3 
REMARK    2  A    between atoms: C_3  and  O_4 
REMARK    3  A    between atoms: O_4  and  C_5 
REMARK    4  A    between atoms: C_8  and  C_9 
REMARK    5  A    between atoms: C_9  and  C_10 
REMARK    6  A    between atoms: C_9  and  O_12 
REMARK    7  A    between atoms: C_10  and  O_11 
REMARK    8  A    between atoms: O_12  and  C_13 
ROOT
HETATM    1  C   UNL     1      -3.975   1.763   0.256  1.00  0.00     0.185 C 
ENDROOT
BRANCH   1   2
HETATM    2  C   UNL     1      -2.827   0.762   0.166  1.00  0.00    -0.027 C 
HETATM    3  C   UNL     1      -3.019  -0.440  -0.532  1.00  0.00     0.012 C 
HETATM    4  C   UNL     1      -1.936  -1.256  -0.847  1.00  0.00     0.037 C 
HETATM    5  C   UNL     1      -0.650  -0.870  -0.476  1.00  0.00     0.068 C 
HETATM    6  C   UNL     1      -0.475   0.211   0.374  1.00  0.00     0.037 C 
HETATM    7  C   UNL     1      -1.561   1.016   0.706  1.00  0.00     0.012 C 
BRANCH   5   8
HETATM    8  O   UNL     1       0.355  -1.614  -1.021  1.00  0.00    -0.351 OA
BRANCH   8   9
HETATM    9  C   UNL     1       1.637  -0.980  -1.113  1.00  0.00     0.175 C 
BRANCH   9  10
HETATM   10  C   UNL     1       2.598  -1.500   0.000  1.00  0.00     0.022 C 
HETATM   11  C   UNL     1       2.598  -2.500   0.000  1.00  0.00     0.007 C 
ENDBRANCH   9  10
ENDBRANCH   8   9
ENDBRANCH   5   8
ENDBRANCH   1   2
BRANCH   1  12
HETATM   12  C   UNL     1      -3.577   3.250   0.038  1.00  0.00     0.201 C 
BRANCH  12  13
HETATM   13  O   UNL     1      -2.534   3.769   0.872  1.00  0.00    -0.398 OA
HETATM   14  H   UNL     1      -2.764   4.704   1.010  1.00  0.00     0.209 HD
ENDBRANCH  12  13
ENDBRANCH   1  12
BRANCH   1  15
HETATM   15  O   UNL     1      -4.736   1.529   1.453  1.00  0.00    -0.335 OA
BRANCH  15  16
HETATM   16  C   UNL     1      -6.088   1.413   1.107  1.00  0.00     0.120 C 
HETATM   17  C   UNL     1      -6.939   2.617   1.065  1.00  0.00     0.226 C 
HETATM   18  C   UNL     1      -8.063   2.510   0.333  1.00  0.00     0.192 C 
HETATM   19  O   UNL     1      -6.488   3.606   1.703  1.00  0.00    -0.283 OA
HETATM   20  O   UNL     1      -8.538   1.398  -0.300  1.00  0.00    -0.355 OA
HETATM   21  C   UNL     1      -7.959   0.155   0.119  1.00  0.00     0.205 C 
HETATM   22  C   UNL     1      -6.592   0.243   0.706  1.00  0.00     0.040 C 
ENDBRANCH  15  16
ENDBRANCH   1  15
TORSDOF 8
