REMARK  5 active torsions:
REMARK  status: ('A' for Active; 'I' for Inactive)
REMARK    1  A    between atoms: N_2  and  C_3 
REMARK    2  A    between atoms: C_3  and  C_4 
REMARK    3  A    between atoms: C_4  and  C_5 
REMARK    4  A    between atoms: C_5  and  N_6 
REMARK       I    between atoms: N_6  and  C_7 
REMARK    5  A    between atoms: C_7  and  S_9 
ROOT
HETATM    1  C   UNL     1       3.234   1.490   0.150  1.00  0.00     0.097 C 
ENDROOT
BRANCH   1   2
HETATM    2  C   UNL     1       3.946   0.538  -0.796  1.00  0.00     0.034 C 
BRANCH   2   3
HETATM    3  C   UNL     1       5.418   0.634  -0.583  1.00  0.00     0.114 C 
BRANCH   3   4
HETATM    4  N   UNL     1       6.062  -0.500   0.000  1.00  0.00    -0.425 N 
HETATM    5  C   UNL     1       6.062  -1.500   0.000  1.00  0.00     0.139 C 
HETATM    6  H   UNL     1       6.994  -0.096   0.166  1.00  0.00     0.152 HD
ENDBRANCH   3   4
ENDBRANCH   2   3
ENDBRANCH   1   2
BRANCH   1   7
HETATM    7  N   UNL     1       2.793   0.771   1.321  1.00  0.00    -0.256 NA
HETATM    8  C   UNL     1       1.452   0.503   1.373  1.00  0.00     0.228 C 
HETATM    9  O   UNL     1       0.708   1.075   2.154  1.00  0.00    -0.270 OA
HETATM   10  H   UNL     1       3.318  -0.095   1.438  1.00  0.00     0.131 HD
BRANCH   8  11
HETATM   11  S   UNL     1       0.866  -0.500   0.000  1.00  0.00    -0.218 SA
HETATM   12  C   UNL     1       0.000   0.000   0.000  1.00  0.00     0.274 C 
ENDBRANCH   8  11
ENDBRANCH   1   7
TORSDOF 5
