REMARK  0 active torsions:
REMARK  status: ('A' for Active; 'I' for Inactive)
ROOT
HETATM    1  N   UNL     1      -0.866  -2.500   0.000  1.00  0.00    -0.191 NA
HETATM    2  C   UNL     1      -0.866  -1.500   0.000  1.00  0.00     0.103 C 
HETATM    3  C   UNL     1      -0.866  -0.500   0.000  1.00  0.00     0.094 C 
HETATM    4  C   UNL     1      -2.042   0.181  -0.008  1.00  0.00     0.026 C 
HETATM    5  C   UNL     1      -2.173   1.668  -0.034  1.00  0.00     0.203 C 
HETATM    6  O   UNL     1      -0.987   2.413  -0.273  1.00  0.00    -0.355 OA
HETATM    7  C   UNL     1       0.179   1.722  -0.153  1.00  0.00     0.191 C 
HETATM    8  C   UNL     1       0.350   0.394  -0.001  1.00  0.00     0.213 C 
HETATM    9  O   UNL     1       1.451  -0.214   0.129  1.00  0.00    -0.285 OA
ENDROOT
TORSDOF 0
