REMARK  2 active torsions:
REMARK  status: ('A' for Active; 'I' for Inactive)
REMARK    1  A    between atoms: S_2  and  C_3 
REMARK    2  A    between atoms: C_3  and  C_5 
ROOT
HETATM    1  C   UNL     1       1.069  -0.904   0.119  1.00  0.00     0.111 A 
HETATM    2  C   UNL     1       0.521  -2.179   0.031  1.00  0.00     0.064 A 
HETATM    3  C   UNL     1      -0.861  -1.999  -0.045  1.00  0.00     0.053 A 
HETATM    4  C   UNL     1      -1.919  -3.034  -0.079  1.00  0.00     0.072 C 
HETATM    5  N   UNL     1      -1.181  -0.709  -0.026  1.00  0.00    -0.177 NA
HETATM    6  N   UNL     1       0.000   0.000   0.000  1.00  0.00    -0.270 N 
HETATM    7  C   UNL     1       0.000   1.000   0.000  1.00  0.00     0.180 C 
ENDROOT
BRANCH   1   8
HETATM    8  C   UNL     1       2.445  -0.510   0.340  1.00  0.00     0.236 C 
HETATM    9  O   UNL     1       2.780   0.393   1.094  1.00  0.00    -0.278 OA
BRANCH   8  10
HETATM   10  S   UNL     1       3.636  -1.270  -0.713  1.00  0.00    -0.090 SA
HETATM   11  C   UNL     1       3.737  -2.952  -0.078  1.00  0.00     0.099 C 
ENDBRANCH   8  10
ENDBRANCH   1   8
TORSDOF 2
