REMARK  3 active torsions:
REMARK  status: ('A' for Active; 'I' for Inactive)
REMARK    1  A    between atoms: C_7  and  C_8 
REMARK    2  A    between atoms: C_8  and  O_10 
REMARK    3  A    between atoms: O_10  and  C_11 
ROOT
HETATM    1  N   UNL     1       5.110   1.029   0.013  1.00  0.00     0.046 N 
HETATM    2  N   UNL     1       4.765  -0.057  -0.055  1.00  0.00    -0.256 NA
HETATM    3  C   UNL     1       4.432  -1.320  -0.130  1.00  0.00     0.265 A 
HETATM    4  N   UNL     1       5.273  -2.372  -0.384  1.00  0.00    -0.207 NA
HETATM    5  C   UNL     1       4.464  -3.382  -0.262  1.00  0.00     0.237 A 
HETATM    6  N   UNL     1       3.148  -3.095   0.058  1.00  0.00    -0.231 NA
HETATM    7  C   UNL     1       3.077  -1.790   0.143  1.00  0.00     0.196 A 
ENDROOT
BRANCH   7   8
HETATM    8  C   UNL     1       1.832  -1.073   0.514  1.00  0.00     0.322 C 
HETATM    9  O   UNL     1       1.711  -0.613   1.637  1.00  0.00    -0.257 OA
BRANCH   8  10
HETATM   10  O   UNL     1       0.975  -1.295  -0.507  1.00  0.00    -0.270 OA
BRANCH  10  11
HETATM   11  C   UNL     1      -0.310  -0.797  -0.273  1.00  0.00     0.129 C 
HETATM   12  C   UNL     1      -0.592   0.615  -0.514  1.00  0.00     0.227 C 
HETATM   13  C   UNL     1      -1.823   1.039  -0.167  1.00  0.00     0.192 C 
HETATM   14  O   UNL     1       0.385   1.249  -1.002  1.00  0.00    -0.283 OA
HETATM   15  O   UNL     1      -2.853   0.279   0.325  1.00  0.00    -0.355 OA
HETATM   16  C   UNL     1      -2.696  -1.141   0.224  1.00  0.00     0.205 C 
HETATM   17  C   UNL     1      -1.302  -1.638   0.049  1.00  0.00     0.041 C 
ENDBRANCH  10  11
ENDBRANCH   8  10
ENDBRANCH   7   8
TORSDOF 3
