REMARK  5 active torsions:
REMARK  status: ('A' for Active; 'I' for Inactive)
REMARK    1  A    between atoms: O_2  and  C_3 
REMARK    2  A    between atoms: C_5  and  C_6 
REMARK    3  A    between atoms: C_6  and  S_8 
REMARK    4  A    between atoms: C_11  and  O_12 
REMARK    5  A    between atoms: C_14  and  O_15 
ROOT
HETATM    1  C   UNL     1       0.832   0.619   0.012  1.00  0.00     0.105 A 
HETATM    2  C   UNL     1       0.706  -0.731   0.037  1.00  0.00     0.055 A 
HETATM    3  C   UNL     1      -0.539  -1.398   0.039  1.00  0.00     0.026 A 
HETATM    4  C   UNL     1      -1.720  -0.693   0.046  1.00  0.00     0.055 A 
HETATM    5  C   UNL     1      -1.665   0.661   0.018  1.00  0.00     0.105 A 
HETATM    6  C   UNL     1      -0.384   1.308  -0.004  1.00  0.00     0.133 A 
ENDROOT
BRANCH   3   7
HETATM    7  C   UNL     1      -0.682  -2.802  -0.001  1.00  0.00     0.218 C 
HETATM    8  O   UNL     1      -1.760  -3.454  -0.002  1.00  0.00    -0.280 OA
BRANCH   7   9
HETATM    9  S   UNL     1       0.866  -3.500   0.000  1.00  0.00    -0.092 SA
HETATM   10  C   UNL     1       0.866  -4.500   0.000  1.00  0.00     0.099 C 
ENDBRANCH   7   9
ENDBRANCH   3   7
BRANCH   1  11
HETATM   11  O   UNL     1       2.076   1.159  -0.075  1.00  0.00    -0.353 OA
HETATM   12  C   UNL     1       3.275   0.413   0.218  1.00  0.00     0.210 C 
ENDBRANCH   1  11
BRANCH   5  13
HETATM   13  O   UNL     1      -2.874   1.316  -0.147  1.00  0.00    -0.353 OA
HETATM   14  C   UNL     1      -4.120   0.667   0.323  1.00  0.00     0.210 C 
ENDBRANCH   5  13
BRANCH   6  15
HETATM   15  O   UNL     1      -0.300   2.675  -0.013  1.00  0.00    -0.356 OA
HETATM   16  H   UNL     1       0.653   2.874  -0.003  1.00  0.00     0.218 HD
ENDBRANCH   6  15
TORSDOF 5
