REMARK  3 active torsions:
REMARK  status: ('A' for Active; 'I' for Inactive)
REMARK    1  A    between atoms: N_1  and  C_2 
REMARK    2  A    between atoms: C_2  and  C_3 
REMARK    3  A    between atoms: N_7  and  C_8 
ROOT
HETATM    1  C   UNL     1       0.743  -0.604   0.037  1.00  0.00     0.171 A 
HETATM    2  N   UNL     1       0.355  -1.858   0.171  1.00  0.00    -0.145 NA
HETATM    3  N   UNL     1      -1.014  -1.835   0.212  1.00  0.00     0.018 NA
HETATM    4  N   UNL     1      -1.472  -0.596   0.128  1.00  0.00     0.004 NA
HETATM    5  N   UNL     1      -0.382   0.194   0.024  1.00  0.00    -0.200 N 
ENDROOT
BRANCH   1   6
HETATM    6  C   UNL     1       2.137  -0.091  -0.018  1.00  0.00     0.348 C 
BRANCH   6   7
HETATM    7  N   UNL     1       3.075  -1.125  -0.436  1.00  0.00     0.085 N 
HETATM    8  H   UNL     1       2.807  -2.013  -0.003  1.00  0.00     0.313 HD
HETATM    9  H   UNL     1       4.009  -0.913  -0.090  1.00  0.00     0.313 HD
ENDBRANCH   6   7
ENDBRANCH   1   6
BRANCH   5  10
HETATM   10  C   UNL     1      -0.478   1.577  -0.045  1.00  0.00     0.375 C 
HETATM   11  O   UNL     1      -1.569   2.137  -0.024  1.00  0.00    -0.282 OA
ENDBRANCH   5  10
TORSDOF 3
