REMARK  4 active torsions:
REMARK  status: ('A' for Active; 'I' for Inactive)
REMARK    1  A    between atoms: N_2  and  C_3 
REMARK    2  A    between atoms: C_3  and  C_4 
REMARK    3  A    between atoms: C_4  and  C_5 
REMARK    4  A    between atoms: C_5  and  S_7 
ROOT
HETATM    1  C   UNL     1       2.586   0.777   1.408  1.00  0.00     0.134 C 
ENDROOT
BRANCH   1   2
HETATM    2  C   UNL     1       3.963   0.213   1.190  1.00  0.00     0.063 C 
BRANCH   2   3
HETATM    3  N   UNL     1       4.330  -0.500   0.000  1.00  0.00    -0.406 N 
HETATM    4  C   UNL     1       4.330  -1.500   0.000  1.00  0.00     0.145 C 
HETATM    5  H   UNL     1       5.119  -0.013  -0.438  1.00  0.00     0.158 HD
ENDBRANCH   2   3
ENDBRANCH   1   2
BRANCH   1   6
HETATM    6  C   UNL     1       1.733   0.945   0.162  1.00  0.00     0.190 C 
HETATM    7  O   UNL     1       1.604   2.014  -0.431  1.00  0.00    -0.285 OA
BRANCH   6   8
HETATM    8  S   UNL     1       0.857  -0.491  -0.364  1.00  0.00    -0.097 SA
HETATM    9  C   UNL     1      -0.786   0.021   0.161  1.00  0.00     0.098 C 
ENDBRANCH   6   8
ENDBRANCH   1   6
TORSDOF 4
