REMARK  6 active torsions:
REMARK  status: ('A' for Active; 'I' for Inactive)
REMARK    1  A    between atoms: C_3  and  C_4 
REMARK    2  A    between atoms: C_4  and  C_5 
REMARK    3  A    between atoms: C_5  and  C_6 
REMARK    4  A    between atoms: C_5  and  C_8 
REMARK    5  A    between atoms: C_6  and  O_7 
REMARK    6  A    between atoms: C_8  and  S_10 
ROOT
HETATM    1  C   UNL     1       0.816   3.000  -0.151  1.00  0.00     0.043 C 
ENDROOT
BRANCH   1   2
HETATM    2  C   UNL     1       1.951   2.127  -0.431  1.00  0.00     0.017 C 
BRANCH   2   3
HETATM    3  C   UNL     1       3.347   2.402  -0.183  1.00  0.00    -0.003 C 
HETATM    4  C   UNL     1       4.330   1.500   0.000  1.00  0.00    -0.031 C 
HETATM    5  C   UNL     1       4.330   0.500   0.000  1.00  0.00     0.036 C 
ENDBRANCH   2   3
ENDBRANCH   1   2
BRANCH   1   6
HETATM    6  C   UNL     1       0.900   4.338  -0.115  1.00  0.00     0.147 C 
BRANCH   6   7
HETATM    7  O   UNL     1      -0.139   5.177   0.189  1.00  0.00    -0.372 OA
HETATM    8  H   UNL     1       0.150   6.098   0.062  1.00  0.00     0.216 HD
ENDBRANCH   6   7
ENDBRANCH   1   6
BRANCH   1   9
HETATM    9  C   UNL     1      -0.535   2.377   0.043  1.00  0.00     0.220 C 
HETATM   10  O   UNL     1      -1.508   2.644  -0.647  1.00  0.00    -0.280 OA
BRANCH   9  11
HETATM   11  S   UNL     1      -0.589   1.106   1.260  1.00  0.00    -0.092 SA
HETATM   12  C   UNL     1      -1.243  -0.199   0.193  1.00  0.00     0.099 C 
ENDBRANCH   9  11
ENDBRANCH   1   9
TORSDOF 6
