REMARK  3 active torsions:
REMARK  status: ('A' for Active; 'I' for Inactive)
REMARK    1  A    between atoms: C_7  and  O_8 
REMARK    2  A    between atoms: O_8  and  C_9 
REMARK    3  A    between atoms: C_9  and  C_11 
ROOT
HETATM    1  O   UNL     1       2.935  -0.669  -0.455  1.00  0.00    -0.271 OA
ENDROOT
BRANCH   1   2
HETATM    2  C   UNL     1       4.034   0.095  -0.046  1.00  0.00     0.146 C 
HETATM    3  C   UNL     1       4.128   1.546  -0.367  1.00  0.00     0.186 C 
HETATM    4  O   UNL     1       3.287   2.102  -1.064  1.00  0.00    -0.290 OA
HETATM    5  C   UNL     1       5.312   2.283   0.217  1.00  0.00     0.112 C 
HETATM    6  C   UNL     1       6.504   1.351   0.160  1.00  0.00     0.182 C 
HETATM    7  O   UNL     1       6.272   0.134   0.882  1.00  0.00    -0.360 OA
HETATM    8  C   UNL     1       5.089  -0.476   0.557  1.00  0.00     0.175 C 
ENDBRANCH   1   2
BRANCH   1   9
HETATM    9  C   UNL     1       1.705  -0.259   0.012  1.00  0.00     0.293 C 
HETATM   10  O   UNL     1       1.511   0.538   0.920  1.00  0.00    -0.262 OA
BRANCH   9  11
HETATM   11  C   UNL     1       0.626  -1.054  -0.745  1.00  0.00     0.225 C 
HETATM   12  C   UNL     1       0.408  -2.428  -0.067  1.00  0.00     0.069 C 
HETATM   13  C   UNL     1      -0.996  -2.689   0.388  1.00  0.00    -0.025 C 
HETATM   14  C   UNL     1      -1.895  -1.699   0.420  1.00  0.00    -0.005 C 
HETATM   15  C   UNL     1      -1.537  -0.313  -0.005  1.00  0.00     0.196 C 
HETATM   16  O   UNL     1      -0.575  -0.352  -1.052  1.00  0.00    -0.372 OA
ENDBRANCH   9  11
ENDBRANCH   1   9
TORSDOF 3
