REMARK  5 active torsions:
REMARK  status: ('A' for Active; 'I' for Inactive)
REMARK    1  A    between atoms: N_4  and  C_5 
REMARK    2  A    between atoms: C_14  and  C_15 
REMARK    3  A    between atoms: C_15  and  O_16 
REMARK    4  A    between atoms: C_15  and  C_17 
REMARK    5  A    between atoms: C_17  and  O_18 
ROOT
HETATM    1  C   UNL     1      -0.009   0.401  -0.344  1.00  0.00     0.171 C 
HETATM    2  C   UNL     1      -1.038   0.028   0.719  1.00  0.00     0.207 C 
HETATM    3  O   UNL     1      -2.031   1.018   0.975  1.00  0.00    -0.343 OA
HETATM    4  C   UNL     1      -3.117   0.732   0.088  1.00  0.00     0.160 C 
HETATM    5  C   UNL     1      -3.346   1.958  -0.785  1.00  0.00     0.078 C 
HETATM    6  C   UNL     1      -4.364   0.406   0.906  1.00  0.00     0.078 C 
HETATM    7  O   UNL     1      -2.783  -0.400  -0.726  1.00  0.00    -0.323 OA
HETATM    8  C   UNL     1      -1.767  -1.084   0.007  1.00  0.00     0.295 C 
HETATM    9  O   UNL     1      -0.858  -1.741  -0.881  1.00  0.00    -0.348 OA
HETATM   10  C   UNL     1       0.389  -0.978  -0.889  1.00  0.00     0.182 C 
ENDROOT
BRANCH   1  11
HETATM   11  N   UNL     1       1.050   1.285   0.049  1.00  0.00    -0.273 N 
HETATM   12  C   UNL     1       2.159   1.631  -0.672  1.00  0.00     0.136 C 
HETATM   13  C   UNL     1       2.910   2.359   0.223  1.00  0.00     0.065 C 
HETATM   14  C   UNL     1       4.311   2.807   0.144  1.00  0.00     0.073 C 
HETATM   15  N   UNL     1       2.168   2.583   1.349  1.00  0.00    -0.164 NA
HETATM   16  N   UNL     1       1.016   1.943   1.216  1.00  0.00     0.005 NA
ENDBRANCH   1  11
BRANCH  10  17
HETATM   17  C   UNL     1       1.415  -1.871  -0.144  1.00  0.00     0.172 C 
BRANCH  17  18
HETATM   18  O   UNL     1       1.015  -2.097   1.220  1.00  0.00    -0.391 OA
HETATM   19  H   UNL     1       0.373  -2.825   1.192  1.00  0.00     0.210 HD
ENDBRANCH  17  18
BRANCH  17  20
HETATM   20  C   UNL     1       2.864  -1.382  -0.134  1.00  0.00     0.198 C 
BRANCH  20  21
HETATM   21  O   UNL     1       3.719  -2.443   0.298  1.00  0.00    -0.398 OA
HETATM   22  H   UNL     1       3.421  -2.668   1.199  1.00  0.00     0.209 HD
ENDBRANCH  20  21
ENDBRANCH  17  20
ENDBRANCH  10  17
TORSDOF 5
