REMARK  0 active torsions:
REMARK  status: ('A' for Active; 'I' for Inactive)
ROOT
HETATM    1  O   UNL     1      -1.679  -2.185  -0.247  1.00  0.00    -0.284 OA
HETATM    2  C   UNL     1      -1.609  -0.929  -0.082  1.00  0.00     0.222 C 
HETATM    3  C   UNL     1      -2.678  -0.124   0.112  1.00  0.00     0.192 C 
HETATM    4  O   UNL     1      -2.746   1.226   0.285  1.00  0.00    -0.354 OA
HETATM    5  C   UNL     1      -1.559   1.960   0.006  1.00  0.00     0.215 C 
HETATM    6  C   UNL     1      -0.277   1.198  -0.010  1.00  0.00    -0.000 A 
HETATM    7  C   UNL     1       0.955   1.863  -0.024  1.00  0.00     0.025 A 
HETATM    8  C   UNL     1       2.143   1.129  -0.031  1.00  0.00    -0.007 A 
HETATM    9  C   UNL     1       3.404   1.751  -0.022  1.00  0.00     0.015 A 
HETATM   10  C   UNL     1       4.565   0.981  -0.000  1.00  0.00     0.019 A 
HETATM   11  C   UNL     1       4.462  -0.407   0.007  1.00  0.00     0.008 A 
HETATM   12  I   UNL     1       6.187  -1.568   0.060  1.00  0.00    -0.045 I 
HETATM   13  C   UNL     1       3.210  -1.023  -0.017  1.00  0.00     0.050 A 
HETATM   14  C   UNL     1       2.042  -0.275  -0.037  1.00  0.00     0.069 A 
HETATM   15  N   UNL     1       0.865  -0.910  -0.055  1.00  0.00    -0.244 NA
HETATM   16  C   UNL     1      -0.294  -0.188  -0.048  1.00  0.00     0.117 A 
ENDROOT
TORSDOF 0
