REMARK  15 active torsions:
REMARK  status: ('A' for Active; 'I' for Inactive)
REMARK    1  A    between atoms: C_3  and  O_5 
REMARK    2  A    between atoms: O_5  and  C_6 
REMARK    3  A    between atoms: C_6  and  C_7 
REMARK    4  A    between atoms: C_7  and  C_8 
REMARK    5  A    between atoms: C_8  and  C_9 
REMARK    6  A    between atoms: C_8  and  C_18 
REMARK    7  A    between atoms: C_9  and  C_11 
REMARK    8  A    between atoms: C_18  and  C_20 
REMARK    9  A    between atoms: C_20  and  O_21 
REMARK   10  A    between atoms: C_20  and  C_22 
REMARK   11  A    between atoms: C_22  and  C_24 
REMARK   12  A    between atoms: C_24  and  C_25 
REMARK   13  A    between atoms: C_28  and  O_29 
REMARK   14  A    between atoms: C_28  and  O_30 
REMARK   15  A    between atoms: C_28  and  C_32 
ROOT
HETATM    1  C   UNL     1      -6.031  -1.954   0.307  1.00  0.00     0.135 C 
ENDROOT
BRANCH   1   2
HETATM    2  C   UNL     1      -5.399  -1.461   1.634  1.00  0.00     0.046 C 
BRANCH   2   3
HETATM    3  C   UNL     1      -4.287  -0.426   1.390  1.00  0.00     0.170 C 
BRANCH   3   4
HETATM    4  O   UNL     1      -3.064  -1.131   1.196  1.00  0.00    -0.378 OA
BRANCH   4   5
HETATM    5  C   UNL     1      -2.232  -0.866   0.000  1.00  0.00     0.084 A 
HETATM    6  C   UNL     1      -1.366  -1.366   0.000  1.00  0.00     0.102 A 
HETATM    7  C   UNL     1      -1.366  -2.366   0.000  1.00  0.00     0.058 A 
HETATM    8  C   UNL     1      -1.732   0.000   0.000  1.00  0.00     0.166 A 
HETATM    9  C   UNL     1      -3.261  -1.126  -1.369  1.00  0.00     0.049 C 
BRANCH   8  10
HETATM   10  O   UNL     1      -1.736   0.425  -1.538  1.00  0.00    -0.363 OA
HETATM   11  H   UNL     1      -2.411   1.120  -1.581  1.00  0.00     0.213 HD
ENDBRANCH   8  10
BRANCH   8  12
HETATM   12  O   UNL     1      -1.232   0.866   0.000  1.00  0.00    -0.358 OA
HETATM   13  C   UNL     1      -1.798   2.020   0.657  1.00  0.00     0.205 C 
ENDBRANCH   8  12
BRANCH   8  14
HETATM   14  C   UNL     1       0.177   0.055   0.421  1.00  0.00     0.001 C 
HETATM   15  C   UNL     1       1.078   0.382  -0.661  1.00  0.00     0.012 C 
HETATM   16  C   UNL     1       2.415   0.007  -0.609  1.00  0.00     0.001 C 
HETATM   17  C   UNL     1       2.886  -0.705   0.491  1.00  0.00     0.000 C 
HETATM   18  C   UNL     1       2.067  -0.913   1.608  1.00  0.00     0.001 C 
HETATM   19  C   UNL     1       0.742  -0.459   1.628  1.00  0.00     0.012 C 
ENDBRANCH   8  14
ENDBRANCH   4   5
ENDBRANCH   3   4
ENDBRANCH   2   3
ENDBRANCH   1   2
BRANCH   1  20
HETATM   20  C   UNL     1      -7.491  -1.523   0.366  1.00  0.00     0.174 C 
HETATM   21  O   UNL     1      -7.673  -0.313   0.576  1.00  0.00    -0.291 OA
BRANCH  20  22
HETATM   22  C   UNL     1      -8.622  -2.502   0.340  1.00  0.00     0.060 A 
HETATM   23  C   UNL     1      -9.895  -2.153  -0.208  1.00  0.00     0.185 A 
HETATM   24  C   UNL     1     -10.859  -3.184  -0.156  1.00  0.00     0.056 A 
HETATM   25  O   UNL     1     -10.209  -1.031  -0.735  1.00  0.00    -0.287 OA
HETATM   26  C   UNL     1     -10.605  -4.467   0.353  1.00  0.00     0.004 A 
HETATM   27  C   UNL     1      -9.361  -4.753   0.889  1.00  0.00     0.001 A 
HETATM   28  C   UNL     1      -8.375  -3.766   0.914  1.00  0.00     0.019 A 
ENDBRANCH  20  22
ENDBRANCH   1  20
BRANCH   1  29
HETATM   29  C   UNL     1      -5.568  -3.323  -0.317  1.00  0.00     0.174 C 
HETATM   30  O   UNL     1      -6.191  -3.790  -1.282  1.00  0.00    -0.294 OA
BRANCH  29  31
HETATM   31  C   UNL     1      -3.964  -3.866   0.000  1.00  0.00     0.258 C 
BRANCH  31  32
HETATM   32  O   UNL     1      -3.532  -3.875   1.464  1.00  0.00    -0.380 OA
HETATM   33  H   UNL     1      -3.181  -2.983   1.672  1.00  0.00     0.211 HD
ENDBRANCH  31  32
BRANCH  31  34
HETATM   34  C   UNL     1      -3.964  -4.866   0.000  1.00  0.00     0.169 C 
HETATM   35  O   UNL     1      -5.001  -5.532   0.290  1.00  0.00    -0.294 OA
BRANCH  34  36
HETATM   36  C   UNL     1      -2.841  -5.875  -0.082  1.00  0.00     0.159 C 
BRANCH  36  37
HETATM   37  C   UNL     1      -1.568  -5.631  -0.814  1.00  0.00     0.130 C 
HETATM   38  C   UNL     1      -0.324  -6.174  -0.142  1.00  0.00     0.091 C 
HETATM   39  O   UNL     1      -1.533  -5.053  -1.892  1.00  0.00    -0.298 OA
ENDBRANCH  36  37
ENDBRANCH  34  36
ENDBRANCH  31  34
ENDBRANCH  29  31
ENDBRANCH   1  29
TORSDOF 15
