REMARK  6 active torsions:
REMARK  status: ('A' for Active; 'I' for Inactive)
REMARK    1  A    between atoms: C_5  and  N_6 
REMARK    2  A    between atoms: N_6  and  C_7 
REMARK    3  A    between atoms: C_7  and  O_9 
REMARK    4  A    between atoms: O_9  and  C_10 
REMARK    5  A    between atoms: C_19  and  O_20 
REMARK    6  A    between atoms: O_20  and  C_21 
ROOT
HETATM    1  N   UNL     1      -0.630  -3.367  -0.939  1.00  0.00    -0.191 NA
HETATM    2  C   UNL     1      -0.451  -2.241  -0.731  1.00  0.00     0.102 C 
HETATM    3  C   UNL     1      -0.218  -0.852  -0.471  1.00  0.00     0.080 A 
HETATM    4  C   UNL     1      -1.361  -0.031  -0.388  1.00  0.00     0.055 A 
HETATM    5  C   UNL     1      -1.269   1.347  -0.185  1.00  0.00     0.036 A 
HETATM    6  C   UNL     1       0.008   1.909  -0.109  1.00  0.00     0.032 A 
HETATM    7  C   UNL     1       1.151   1.101  -0.189  1.00  0.00     0.041 A 
HETATM    8  C   UNL     1       1.054  -0.289  -0.342  1.00  0.00     0.095 A 
ENDROOT
BRANCH   8   9
HETATM    9  O   UNL     1       2.269  -0.913  -0.406  1.00  0.00    -0.289 OA
BRANCH   9  10
HETATM   10  C   UNL     1       2.388  -2.235   0.111  1.00  0.00     0.505 C 
HETATM   11  F   UNL     1       1.703  -2.335   1.276  1.00  0.00    -0.184 F 
HETATM   12  F   UNL     1       3.697  -2.428   0.413  1.00  0.00    -0.184 F 
ENDBRANCH   9  10
ENDBRANCH   8   9
BRANCH   5  13
HETATM   13  N   UNL     1      -2.371   2.215  -0.010  1.00  0.00    -0.327 N 
HETATM   14  H   UNL     1      -2.155   3.189   0.178  1.00  0.00     0.169 HD
BRANCH  13  15
HETATM   15  C   UNL     1      -3.714   1.935   0.125  1.00  0.00     0.220 C 
HETATM   16  S   UNL     1      -4.755   3.101   0.691  1.00  0.00    -0.033 SA
BRANCH  15  17
HETATM   17  O   UNL     1      -4.080   0.657  -0.157  1.00  0.00    -0.279 OA
BRANCH  17  18
HETATM   18  C   UNL     1      -5.284  -0.064   0.064  1.00  0.00     0.146 C 
HETATM   19  C   UNL     1      -6.605   0.369  -0.460  1.00  0.00     0.186 C 
HETATM   20  C   UNL     1      -7.791  -0.407   0.057  1.00  0.00     0.112 C 
HETATM   21  O   UNL     1      -6.723   1.289  -1.262  1.00  0.00    -0.290 OA
HETATM   22  C   UNL     1      -7.403  -1.872   0.022  1.00  0.00     0.182 C 
HETATM   23  O   UNL     1      -6.263  -2.140   0.847  1.00  0.00    -0.360 OA
HETATM   24  C   UNL     1      -5.229  -1.258   0.668  1.00  0.00     0.175 C 
ENDBRANCH  17  18
ENDBRANCH  15  17
ENDBRANCH  13  15
ENDBRANCH   5  13
TORSDOF 6
