REMARK  5 active torsions:
REMARK  status: ('A' for Active; 'I' for Inactive)
REMARK    1  A    between atoms: S_2  and  C_3 
REMARK    2  A    between atoms: C_3  and  N_5 
REMARK    3  A    between atoms: N_5  and  C_6 
REMARK    4  A    between atoms: C_9  and  C_10 
REMARK    5  A    between atoms: C_13  and  S_14 
ROOT
HETATM    1  C   UNL     1      -0.004  -1.420  -0.000  1.00  0.00     0.033 A 
HETATM    2  C   UNL     1       0.256  -2.797  -0.000  1.00  0.00     0.030 A 
HETATM    3  C   UNL     1      -0.819  -3.723  -0.000  1.00  0.00     0.018 A 
HETATM    4  C   UNL     1      -2.142  -3.264  -0.000  1.00  0.00     0.019 A 
HETATM    5  C   UNL     1      -2.346  -1.889  -0.000  1.00  0.00     0.018 A 
HETATM    6  C   UNL     1      -1.314  -1.010  -0.000  1.00  0.00     0.030 A 
ENDROOT
BRANCH   4   7
HETATM    7  C   UNL     1      -3.373  -4.030  -0.000  1.00  0.00     0.203 A 
HETATM    8  O   UNL     1      -4.468  -3.229   0.000  1.00  0.00    -0.264 OA
HETATM    9  C   UNL     1      -5.508  -4.066  -0.000  1.00  0.00     0.228 A 
HETATM   10  N   UNL     1      -5.114  -5.328   0.000  1.00  0.00    -0.114 NA
HETATM   11  N   UNL     1      -3.704  -5.298   0.000  1.00  0.00    -0.120 NA
BRANCH   9  12
HETATM   12  S   UNL     1      -7.107  -3.418  -0.000  1.00  0.00    -0.096 SA
HETATM   13  H   UNL     1      -6.701  -2.132  -0.000  1.00  0.00     0.110 HD
ENDBRANCH   9  12
ENDBRANCH   4   7
BRANCH   1  14
HETATM   14  N   UNL     1       1.031  -0.480  -0.000  1.00  0.00    -0.342 N 
HETATM   15  H   UNL     1       1.983  -0.832   0.000  1.00  0.00     0.167 HD
BRANCH  14  16
HETATM   16  C   UNL     1       0.942   0.899  -0.000  1.00  0.00     0.138 C 
HETATM   17  S   UNL     1      -0.418   1.931  -0.000  1.00  0.00    -0.053 SA
BRANCH  16  18
HETATM   18  S   UNL     1       2.598   1.500   0.000  1.00  0.00    -0.105 SA
HETATM   19  C   UNL     1       2.598   2.500   0.000  1.00  0.00     0.098 C 
ENDBRANCH  16  18
ENDBRANCH  14  16
ENDBRANCH   1  14
TORSDOF 5
