REMARK  2 active torsions:
REMARK  status: ('A' for Active; 'I' for Inactive)
REMARK    1  A    between atoms: S_2  and  C_3 
REMARK    2  A    between atoms: C_3  and  C_5 
ROOT
HETATM    1  C   UNL     1      -0.296  -0.173  -0.022  1.00  0.00     0.045 A 
HETATM    2  C   UNL     1      -0.945  -1.396   0.323  1.00  0.00     0.042 A 
HETATM    3  C   UNL     1      -2.293  -1.191   0.152  1.00  0.00     0.142 A 
HETATM    4  O   UNL     1      -2.528   0.074  -0.272  1.00  0.00    -0.334 OA
HETATM    5  C   UNL     1      -1.321   0.683  -0.381  1.00  0.00     0.157 A 
ENDROOT
BRANCH   1   6
HETATM    6  C   UNL     1       1.104   0.207  -0.044  1.00  0.00     0.220 C 
HETATM    7  O   UNL     1       1.536   1.158  -0.686  1.00  0.00    -0.280 OA
BRANCH   6   8
HETATM    8  S   UNL     1       2.169  -0.741   0.982  1.00  0.00    -0.092 SA
HETATM    9  C   UNL     1       2.464  -2.147  -0.107  1.00  0.00     0.099 C 
ENDBRANCH   6   8
ENDBRANCH   1   6
TORSDOF 2
