REMARK  3 active torsions:
REMARK  status: ('A' for Active; 'I' for Inactive)
REMARK    1  A    between atoms: C_2  and  C_4 
REMARK    2  A    between atoms: C_4  and  N_6 
REMARK       I    between atoms: N_6  and  C_7 
REMARK    3  A    between atoms: C_7  and  C_9 
ROOT
HETATM    1  N   UNL     1       2.000   1.785   0.188  1.00  0.00    -0.255 NA
HETATM    2  C   UNL     1       0.888   1.779  -0.638  1.00  0.00     0.221 C 
HETATM    3  O   UNL     1       0.463   2.838  -1.100  1.00  0.00    -0.275 OA
HETATM    4  H   UNL     1       2.072   2.720   0.568  1.00  0.00     0.131 HD
ENDROOT
BRANCH   2   5
HETATM    5  C   UNL     1       0.449   0.449  -1.122  1.00  0.00     0.079 C 
HETATM    6  C   UNL     1      -0.605  -0.275  -0.687  1.00  0.00     0.001 C 
HETATM    7  C   UNL     1      -1.633   0.062   0.321  1.00  0.00     0.200 C 
HETATM    8  C   UNL     1      -0.822  -1.620  -1.366  1.00  0.00     0.069 C 
HETATM    9  C   UNL     1      -2.790  -0.635   0.310  1.00  0.00     0.189 C 
HETATM   10  O   UNL     1      -1.305   1.000   1.092  1.00  0.00    -0.286 OA
HETATM   11  O   UNL     1      -3.076  -1.760  -0.430  1.00  0.00    -0.359 OA
HETATM   12  C   UNL     1      -1.865  -2.477  -0.662  1.00  0.00     0.179 C 
ENDBRANCH   2   5
BRANCH   1  13
HETATM   13  C   UNL     1       3.263   1.170  -0.213  1.00  0.00     0.062 C 
HETATM   14  C   UNL     1       4.372   2.228  -0.083  1.00  0.00     0.027 C 
BRANCH  13  15
HETATM   15  C   UNL     1       3.646  -0.104   0.592  1.00  0.00    -0.005 C 
HETATM   16  C   UNL     1       2.515  -1.122   0.741  1.00  0.00     0.011 C 
HETATM   17  C   UNL     1       4.850  -0.805  -0.062  1.00  0.00     0.011 C 
ENDBRANCH  13  15
ENDBRANCH   1  13
TORSDOF 3
