REMARK  5 active torsions:
REMARK  status: ('A' for Active; 'I' for Inactive)
REMARK    1  A    between atoms: C_2  and  CA_3 
REMARK    2  A    between atoms: CA_3  and  C_4 
REMARK    3  A    between atoms: CA_3  and  N_6 
REMARK    4  A    between atoms: C_4  and  O_5 
REMARK    5  A    between atoms: N_6  and  C_7 
ROOT
HETATM    1  CA  UNL     1       2.116   0.741   0.053  1.00  0.00     0.012 C 
ENDROOT
BRANCH   1   2
HETATM    2  C   UNL     1       3.464   0.000   0.000  1.00  0.00     0.050 C 
HETATM    3  C   UNL     1       3.464  -1.000   0.000  1.00  0.00     0.011 C 
ENDBRANCH   1   2
BRANCH   1   4
HETATM    4  C   UNL     1       2.170   2.243   0.134  1.00  0.00     0.216 C 
BRANCH   4   5
HETATM    5  O   UNL     1       1.293   2.820  -0.820  1.00  0.00    -0.395 OA
HETATM    6  H   UNL     1       1.380   3.784  -0.737  1.00  0.00     0.209 HD
ENDBRANCH   4   5
ENDBRANCH   1   4
BRANCH   1   7
HETATM    7  N   UNL     1       0.927   0.036   0.068  1.00  0.00    -0.340 N 
HETATM    8  H   UNL     1       0.949  -0.974  -0.026  1.00  0.00     0.167 HD
BRANCH   7   9
HETATM    9  C   UNL     1      -0.341   0.531   0.190  1.00  0.00     0.353 C 
HETATM   10  O   UNL     1      -1.330  -0.194   0.197  1.00  0.00    -0.283 OA
ENDBRANCH   7   9
ENDBRANCH   1   7
TORSDOF 5
