REMARK  6 active torsions:
REMARK  status: ('A' for Active; 'I' for Inactive)
REMARK    1  A    between atoms: N_7  and  C_8 
REMARK    2  A    between atoms: C_8  and  C_9 
REMARK    3  A    between atoms: C_9  and  O_10 
REMARK    4  A    between atoms: C_9  and  C_11 
REMARK    5  A    between atoms: C_11  and  O_12 
REMARK    6  A    between atoms: O_12  and  C_13 
ROOT
HETATM    1  C   UNL     1       1.803   0.744   0.249  1.00  0.00     0.170 C 
ENDROOT
BRANCH   1   2
HETATM    2  C   UNL     1       3.256   0.250   0.101  1.00  0.00     0.306 C 
BRANCH   2   3
HETATM    3  N   UNL     1       4.327   1.157   0.606  1.00  0.00     0.095 N 
HETATM    4  C   UNL     1       4.474   2.478  -0.043  1.00  0.00     0.219 C 
HETATM    5  C   UNL     1       3.322   3.475   0.161  1.00  0.00     0.043 C 
HETATM    6  C   UNL     1       5.705   3.189   0.569  1.00  0.00     0.035 C 
HETATM    7  C   UNL     1       7.015   2.464   0.312  1.00  0.00     0.004 C 
HETATM    8  C   UNL     1       6.795   1.003  -0.031  1.00  0.00     0.030 C 
HETATM    9  C   UNL     1       5.601   0.408   0.717  1.00  0.00     0.273 C 
ENDBRANCH   2   3
ENDBRANCH   1   2
BRANCH   1  10
HETATM   10  O   UNL     1       1.379   1.335  -0.998  1.00  0.00    -0.392 OA
HETATM   11  H   UNL     1       0.411   1.447  -0.900  1.00  0.00     0.210 HD
ENDBRANCH   1  10
BRANCH   1  12
HETATM   12  C   UNL     1       0.794  -0.361   0.604  1.00  0.00     0.209 C 
BRANCH  12  13
HETATM   13  O   UNL     1      -0.340   0.327   1.165  1.00  0.00    -0.343 OA
BRANCH  13  14
HETATM   14  C   UNL     1      -1.579  -0.062   0.683  1.00  0.00     0.140 C 
HETATM   15  C   UNL     1      -2.046  -1.455   0.754  1.00  0.00     0.205 C 
HETATM   16  C   UNL     1      -3.265  -1.675   0.232  1.00  0.00     0.057 C 
HETATM   17  O   UNL     1      -1.275  -2.280   1.312  1.00  0.00    -0.286 OA
HETATM   18  C   UNL     1      -4.128  -0.613  -0.372  1.00  0.00     0.206 C 
HETATM   19  O   UNL     1      -3.667   0.741  -0.259  1.00  0.00    -0.356 OA
HETATM   20  C   UNL     1      -2.401   0.901   0.234  1.00  0.00     0.175 C 
ENDBRANCH  13  14
ENDBRANCH  12  13
ENDBRANCH   1  12
TORSDOF 6
