REMARK  2 active torsions:
REMARK  status: ('A' for Active; 'I' for Inactive)
REMARK    1  A    between atoms: S_2  and  C_3 
REMARK    2  A    between atoms: C_3  and  C_5 
ROOT
HETATM    1  C   UNL     1      -0.274  -0.294  -0.000  1.00  0.00     0.089 A 
HETATM    2  C   UNL     1      -0.866  -1.552   0.000  1.00  0.00     0.035 A 
HETATM    3  C   UNL     1      -2.280  -1.402   0.000  1.00  0.00     0.019 A 
HETATM    4  C   UNL     1      -2.543  -0.059   0.000  1.00  0.00     0.088 A 
HETATM    5  N   UNL     1      -1.346   0.593   0.000  1.00  0.00    -0.362 N 
HETATM    6  H   UNL     1      -1.219   1.599  -0.000  1.00  0.00     0.165 HD
ENDROOT
BRANCH   1   7
HETATM    7  C   UNL     1       1.057   0.307  -0.000  1.00  0.00     0.235 C 
HETATM    8  O   UNL     1       1.138   1.536  -0.000  1.00  0.00    -0.278 OA
BRANCH   7   9
HETATM    9  S   UNL     1       2.594  -0.534   0.000  1.00  0.00    -0.090 SA
HETATM   10  C   UNL     1       2.468  -2.267  -0.000  1.00  0.00     0.099 C 
ENDBRANCH   7   9
ENDBRANCH   1   7
TORSDOF 2
