REMARK  1 active torsions:
REMARK  status: ('A' for Active; 'I' for Inactive)
REMARK    1  A    between atoms: N_4  and  C_5 
ROOT
HETATM    1  C   UNL     1       0.809   1.588   0.000  1.00  0.00     0.075 C 
HETATM    2  C   UNL     1       0.809   0.588   0.000  1.00  0.00     0.079 A 
HETATM    3  N   UNL     1       1.913  -0.193  -0.000  1.00  0.00    -0.169 NA
HETATM    4  N   UNL     1       1.482  -1.476   0.000  1.00  0.00    -0.217 N 
HETATM    5  C   UNL     1       0.122  -1.587  -0.000  1.00  0.00     0.152 A 
HETATM    6  C   UNL     1      -0.339  -0.301  -0.000  1.00  0.00     0.070 A 
HETATM    7  N   UNL     1      -1.646   0.028  -0.000  1.00  0.00    -0.396 N 
HETATM    8  H   UNL     1      -1.980   0.989  -0.000  1.00  0.00     0.156 HD
HETATM    9  H   UNL     1      -2.395  -0.657   0.000  1.00  0.00     0.156 HD
ENDROOT
BRANCH   4  10
HETATM   10  C   UNL     1       2.436  -2.493  -0.000  1.00  0.00     0.377 C 
HETATM   11  O   UNL     1       2.077  -3.662  -0.000  1.00  0.00    -0.281 OA
ENDBRANCH   4  10
TORSDOF 1
