REMARK  2 active torsions:
REMARK  status: ('A' for Active; 'I' for Inactive)
REMARK    1  A    between atoms: N_1  and  C_2 
REMARK    2  A    between atoms: N_7  and  C_8 
ROOT
HETATM    1  C   UNL     1       1.458   1.091  -0.119  1.00  0.00     0.248 C 
HETATM    2  C   UNL     1       2.629   0.225   0.335  1.00  0.00     0.076 C 
HETATM    3  C   UNL     1       2.504  -1.162  -0.271  1.00  0.00     0.200 C 
HETATM    4  F   UNL     1       3.483  -1.953   0.252  1.00  0.00    -0.248 F 
HETATM    5  C   UNL     1       1.141  -1.792   0.047  1.00  0.00     0.310 C 
HETATM    6  N   UNL     1      -0.005  -0.962  -0.382  1.00  0.00     0.107 N 
HETATM    7  C   UNL     1       0.114   0.395   0.208  1.00  0.00     0.308 C 
ENDROOT
BRANCH   6   8
HETATM    8  C   UNL     1      -1.315  -1.584  -0.011  1.00  0.00     0.315 C 
HETATM    9  C   UNL     1      -2.527  -0.850  -0.596  1.00  0.00     0.164 C 
HETATM   10  C   UNL     1      -3.870  -1.353  -0.114  1.00  0.00     0.107 C 
HETATM   11  O   UNL     1      -2.472   0.134  -1.337  1.00  0.00    -0.295 OA
HETATM   12  C   UNL     1      -3.790  -2.840   0.178  1.00  0.00     0.175 C 
HETATM   13  O   UNL     1      -2.846  -3.465  -0.683  1.00  0.00    -0.388 OA
HETATM   14  C   UNL     1      -1.492  -3.065  -0.427  1.00  0.00     0.211 C 
ENDBRANCH   6   8
BRANCH   1  15
HETATM   15  N   UNL     1       1.536   2.403   0.534  1.00  0.00     0.084 N 
HETATM   16  H   UNL     1       2.385   2.883   0.235  1.00  0.00     0.313 HD
HETATM   17  H   UNL     1       0.759   2.983   0.214  1.00  0.00     0.313 HD
ENDBRANCH   1  15
TORSDOF 2
