REMARK  2 active torsions:
REMARK  status: ('A' for Active; 'I' for Inactive)
REMARK    1  A    between atoms: S_2  and  C_3 
REMARK    2  A    between atoms: C_3  and  C_5 
ROOT
HETATM    1  C   UNL     1       0.176   0.660   0.807  1.00  0.00     0.076 C 
HETATM    2  C   UNL     1      -0.099  -0.825   0.753  1.00  0.00     0.007 C 
HETATM    3  C   UNL     1      -1.561  -1.025   0.468  1.00  0.00    -0.009 C 
HETATM    4  C   UNL     1      -1.782  -0.697  -1.013  1.00  0.00     0.005 C 
HETATM    5  C   UNL     1      -1.577   0.831  -1.056  1.00  0.00     0.006 C 
HETATM    6  C   UNL     1      -1.230   1.186   0.410  1.00  0.00    -0.002 C 
HETATM    7  C   UNL     1      -2.142   0.206   1.161  1.00  0.00     0.010 C 
ENDROOT
BRANCH   1   8
HETATM    8  C   UNL     1       1.308   1.256  -0.044  1.00  0.00     0.190 C 
HETATM    9  O   UNL     1       1.405   2.459  -0.274  1.00  0.00    -0.285 OA
BRANCH   8  10
HETATM   10  S   UNL     1       2.555   0.139  -0.603  1.00  0.00    -0.097 SA
HETATM   11  C   UNL     1       4.000   0.925   0.138  1.00  0.00     0.098 C 
ENDBRANCH   8  10
ENDBRANCH   1   8
TORSDOF 2
