REMARK  2 active torsions:
REMARK  status: ('A' for Active; 'I' for Inactive)
REMARK    1  A    between atoms: S_2  and  C_3 
REMARK    2  A    between atoms: C_3  and  C_5 
ROOT
HETATM    1  C   UNL     1       0.856  -0.014  -0.019  1.00  0.00     0.027 A 
HETATM    2  C   UNL     1       2.202  -0.625   0.296  1.00  0.00     0.024 C 
HETATM    3  C   UNL     1      -0.235  -0.976  -0.477  1.00  0.00     0.019 A 
HETATM    4  C   UNL     1      -0.306  -0.379   0.893  1.00  0.00     0.019 A 
ENDROOT
BRANCH   1   5
HETATM    5  C   UNL     1       0.867   1.348  -0.650  1.00  0.00     0.194 C 
HETATM    6  O   UNL     1       0.551   1.521  -1.820  1.00  0.00    -0.285 OA
BRANCH   5   7
HETATM    7  S   UNL     1       1.427   2.660   0.366  1.00  0.00    -0.096 SA
HETATM    8  C   UNL     1       3.124   2.728  -0.253  1.00  0.00     0.098 C 
ENDBRANCH   5   7
ENDBRANCH   1   5
TORSDOF 2
