REMARK  2 active torsions:
REMARK  status: ('A' for Active; 'I' for Inactive)
REMARK    1  A    between atoms: C_2  and  O_3 
REMARK    2  A    between atoms: O_3  and  C_4 
ROOT
HETATM    1  C   UNL     1      -0.971  -0.631   0.235  1.00  0.00     0.156 C 
HETATM    2  C   UNL     1      -2.123   0.224  -0.279  1.00  0.00     0.044 C 
HETATM    3  C   UNL     1      -1.886   1.680   0.066  1.00  0.00     0.114 C 
HETATM    4  C   UNL     1      -0.636   2.167  -0.617  1.00  0.00     0.258 C 
HETATM    5  O   UNL     1      -0.495   3.326  -0.986  1.00  0.00    -0.265 OA
HETATM    6  O   UNL     1       0.335   1.234  -0.792  1.00  0.00    -0.319 OA
HETATM    7  C   UNL     1       0.370   0.100   0.095  1.00  0.00     0.211 C 
ENDROOT
BRANCH   1   8
HETATM    8  O   UNL     1      -0.919  -1.862  -0.511  1.00  0.00    -0.321 OA
BRANCH   8   9
HETATM    9  C   UNL     1      -1.793  -2.823  -0.115  1.00  0.00     0.398 C 
HETATM   10  O   UNL     1      -2.599  -2.737   0.797  1.00  0.00    -0.276 OA
ENDBRANCH   8   9
ENDBRANCH   1   8
TORSDOF 2
