REMARK  4 active torsions:
REMARK  status: ('A' for Active; 'I' for Inactive)
REMARK    1  A    between atoms: S_2  and  C_3 
REMARK    2  A    between atoms: C_3  and  C_5 
REMARK    3  A    between atoms: C_5  and  N_6 
REMARK    4  A    between atoms: N_6  and  C_7 
ROOT
HETATM    1  N   UNL     1       0.508  -0.395  -0.393  1.00  0.00     0.099 N 
HETATM    2  H   UNL     1       0.396   0.533  -0.809  1.00  0.00     0.317 HD
ENDROOT
BRANCH   1   3
HETATM    3  C   UNL     1       1.588  -0.345   0.595  1.00  0.00     0.357 C 
BRANCH   3   4
HETATM    4  C   UNL     1       2.799   0.322  -0.060  1.00  0.00     0.183 C 
HETATM    5  O   UNL     1       2.715   1.423  -0.592  1.00  0.00    -0.287 OA
BRANCH   4   6
HETATM    6  S   UNL     1       4.330  -0.500   0.000  1.00  0.00    -0.231 SA
HETATM    7  C   UNL     1       4.330  -1.500   0.000  1.00  0.00     0.270 C 
ENDBRANCH   4   6
ENDBRANCH   3   4
ENDBRANCH   1   3
BRANCH   1   8
HETATM    8  C   UNL     1      -0.795  -0.921   0.039  1.00  0.00     0.147 C 
HETATM    9  C   UNL     1      -1.349  -1.677  -1.188  1.00  0.00     0.048 C 
HETATM   10  C   UNL     1      -0.738  -1.886   1.235  1.00  0.00     0.048 C 
HETATM   11  C   UNL     1      -1.743   0.241   0.387  1.00  0.00     0.048 C 
ENDBRANCH   1   8
TORSDOF 4
