REMARK  1 active torsions:
REMARK  status: ('A' for Active; 'I' for Inactive)
REMARK    1  A    between atoms: C_7  and  N_8 
ROOT
HETATM    1  N   UNL     1       2.605   0.945   0.431  1.00  0.00     0.101 N 
HETATM    2  C   UNL     1       2.553  -0.362  -0.256  1.00  0.00     0.275 C 
HETATM    3  C   UNL     1       1.342  -1.245   0.077  1.00  0.00     0.066 C 
HETATM    4  C   UNL     1       0.046  -0.491   0.298  1.00  0.00     0.229 C 
HETATM    5  N   UNL     1      -0.721  -0.176  -0.938  1.00  0.00     0.089 N 
HETATM    6  C   UNL     1      -1.096   1.125  -0.323  1.00  0.00     0.278 C 
HETATM    7  C   UNL     1       0.150   1.014   0.576  1.00  0.00     0.075 C 
HETATM    8  C   UNL     1       1.394   1.695   0.023  1.00  0.00     0.281 C 
HETATM    9  H   UNL     1      -1.509  -0.794  -1.111  1.00  0.00     0.316 HD
ENDROOT
BRANCH   1  10
HETATM   10  C   UNL     1       3.831   1.740   0.039  1.00  0.00     0.300 C 
HETATM   11  C   UNL     1       4.146   3.131   0.687  1.00  0.00     0.204 C 
HETATM   12  O   UNL     1       3.321   3.609   1.508  1.00  0.00    -0.289 OA
HETATM   13  C   UNL     1       5.284   3.690   0.226  1.00  0.00     0.186 C 
HETATM   14  O   UNL     1       6.209   3.035  -0.551  1.00  0.00    -0.359 OA
HETATM   15  C   UNL     1       6.401   1.726  -0.013  1.00  0.00     0.177 C 
HETATM   16  C   UNL     1       5.124   0.903   0.149  1.00  0.00     0.071 C 
ENDBRANCH   1  10
TORSDOF 1
