REMARK  2 active torsions:
REMARK  status: ('A' for Active; 'I' for Inactive)
REMARK    1  A    between atoms: O_2  and  C_3 
REMARK    2  A    between atoms: C_3  and  S_5 
ROOT
HETATM    1  C   UNL     1       1.526   0.322   0.000  1.00  0.00     0.321 C 
HETATM    2  O   UNL     1       1.669   1.527   0.000  1.00  0.00    -0.252 OA
ENDROOT
BRANCH   1   3
HETATM    3  O   UNL     1       2.598  -0.500   0.000  1.00  0.00    -0.318 OA
HETATM    4  C   UNL     1       2.598  -1.500   0.000  1.00  0.00     0.214 C 
ENDBRANCH   1   3
BRANCH   1   5
HETATM    5  S   UNL     1      -0.086  -0.458  -0.000  1.00  0.00    -0.066 SA
HETATM    6  C   UNL     1      -1.262   0.849   0.000  1.00  0.00     0.101 C 
ENDBRANCH   1   5
TORSDOF 2
