REMARK  4 active torsions:
REMARK  status: ('A' for Active; 'I' for Inactive)
REMARK    1  A    between atoms: C_3  and  C_4 
REMARK    2  A    between atoms: C_3  and  C_14 
REMARK    3  A    between atoms: C_4  and  O_6 
REMARK    4  A    between atoms: O_6  and  C_7 
ROOT
HETATM    1  C   UNL     1       1.154   1.356  -2.468  1.00  0.00     0.188 C 
HETATM    2  N   UNL     1       1.532   1.232  -1.362  1.00  0.00    -0.425 NA
HETATM    3  C   UNL     1       2.058   1.209  -0.016  1.00  0.00     0.266 C 
ENDROOT
BRANCH   3   4
HETATM    4  C   UNL     1       2.043  -0.226   0.520  1.00  0.00     0.300 C 
HETATM    5  O   UNL     1       3.014  -0.979   0.415  1.00  0.00    -0.261 OA
BRANCH   4   6
HETATM    6  O   UNL     1       0.972  -0.549   1.323  1.00  0.00    -0.273 OA
BRANCH   6   7
HETATM    7  C   UNL     1      -0.291  -0.011   0.969  1.00  0.00     0.129 C 
HETATM    8  C   UNL     1      -1.089  -0.671  -0.062  1.00  0.00     0.227 C 
HETATM    9  C   UNL     1      -2.310  -0.161  -0.301  1.00  0.00     0.192 C 
HETATM   10  O   UNL     1      -0.529  -1.682  -0.566  1.00  0.00    -0.283 OA
HETATM   11  O   UNL     1      -2.879   0.938   0.291  1.00  0.00    -0.355 OA
HETATM   12  C   UNL     1      -1.989   1.766   1.036  1.00  0.00     0.205 C 
HETATM   13  C   UNL     1      -0.753   1.105   1.552  1.00  0.00     0.041 C 
ENDBRANCH   6   7
ENDBRANCH   4   6
ENDBRANCH   3   4
BRANCH   3  14
HETATM   14  C   UNL     1       3.464   2.000   0.000  1.00  0.00     0.023 C 
HETATM   15  C   UNL     1       4.496   1.383   0.990  1.00  0.00     0.013 C 
HETATM   16  C   UNL     1       3.464   3.000   0.000  1.00  0.00     0.013 C 
ENDBRANCH   3  14
TORSDOF 4
