REMARK  3 active torsions:
REMARK  status: ('A' for Active; 'I' for Inactive)
REMARK    1  A    between atoms: C_3  and  N_4 
REMARK    2  A    between atoms: C_5  and  O_6 
REMARK    3  A    between atoms: N_8  and  C_9 
ROOT
HETATM    1  C   UNL     1       0.571  -1.945  -0.000  1.00  0.00     0.073 C 
HETATM    2  C   UNL     1      -0.395  -0.853   0.000  1.00  0.00     0.066 A 
HETATM    3  C   UNL     1      -1.778  -0.841   0.000  1.00  0.00     0.105 A 
HETATM    4  C   UNL     1      -2.133   0.509   0.000  1.00  0.00     0.210 A 
HETATM    5  N   UNL     1      -1.111   1.340   0.000  1.00  0.00    -0.137 NA
HETATM    6  N   UNL     1      -0.028   0.504   0.000  1.00  0.00    -0.208 N 
ENDROOT
BRANCH   3   7
HETATM    7  N   UNL     1      -2.603  -1.899  -0.000  1.00  0.00    -0.394 N 
HETATM    8  H   UNL     1      -3.613  -1.771  -0.000  1.00  0.00     0.156 HD
HETATM    9  H   UNL     1      -2.301  -2.865   0.000  1.00  0.00     0.156 HD
ENDBRANCH   3   7
BRANCH   4  10
HETATM   10  O   UNL     1      -3.337   1.078   0.000  1.00  0.00    -0.342 OA
HETATM   11  H   UNL     1      -3.155   2.034  -0.000  1.00  0.00     0.219 HD
ENDBRANCH   4  10
BRANCH   6  12
HETATM   12  C   UNL     1       1.268   1.053  -0.000  1.00  0.00     0.378 C 
HETATM   13  O   UNL     1       1.439   2.270  -0.000  1.00  0.00    -0.281 OA
ENDBRANCH   6  12
TORSDOF 3
