REMARK  5 active torsions:
REMARK  status: ('A' for Active; 'I' for Inactive)
REMARK    1  A    between atoms: O_2  and  C_3 
REMARK    2  A    between atoms: C_3  and  C_5 
REMARK    3  A    between atoms: C_5  and  O_7 
REMARK    4  A    between atoms: C_5  and  C_8 
REMARK    5  A    between atoms: C_8  and  N_9 
ROOT
HETATM    1  C   UNL     1       3.299   1.500  -0.282  1.00  0.00     0.159 C 
HETATM    2  C   UNL     1       3.612   0.085  -0.805  1.00  0.00     0.059 C 
ENDROOT
BRANCH   1   3
HETATM    3  C   UNL     1       4.452   1.821   0.687  1.00  0.00     0.294 C 
HETATM    4  O   UNL     1       4.400   1.751   1.908  1.00  0.00    -0.262 OA
BRANCH   3   5
HETATM    5  O   UNL     1       5.589   2.064  -0.037  1.00  0.00    -0.324 OA
HETATM    6  C   UNL     1       6.806   2.030   0.710  1.00  0.00     0.213 C 
ENDBRANCH   3   5
ENDBRANCH   1   3
BRANCH   1   7
HETATM    7  O   UNL     1       3.331   2.403  -1.399  1.00  0.00    -0.378 OA
HETATM    8  H   UNL     1       4.213   2.325  -1.807  1.00  0.00     0.211 HD
ENDBRANCH   1   7
BRANCH   1   9
HETATM    9  C   UNL     1       1.937   1.674   0.441  1.00  0.00     0.194 C 
BRANCH   9  10
HETATM   10  N   UNL     1       1.015   0.580   0.205  1.00  0.00    -0.280 N 
HETATM   11  N   UNL     1       0.360   0.462  -0.953  1.00  0.00     0.004 NA
HETATM   12  N   UNL     1       0.064  -0.822  -1.101  1.00  0.00    -0.164 NA
HETATM   13  C   UNL     1       0.500  -1.539   0.000  1.00  0.00     0.065 C 
HETATM   14  C   UNL     1       0.956  -0.586   0.911  1.00  0.00     0.136 C 
HETATM   15  C   UNL     1       0.500  -2.539   0.000  1.00  0.00     0.073 C 
ENDBRANCH   9  10
ENDBRANCH   1   9
TORSDOF 5
