REMARK  5 active torsions:
REMARK  status: ('A' for Active; 'I' for Inactive)
REMARK    1  A    between atoms: O_2  and  C_3 
REMARK    2  A    between atoms: C_3  and  C_5 
REMARK    3  A    between atoms: C_10  and  N_11 
REMARK       I    between atoms: N_11  and  C_12 
REMARK    4  A    between atoms: C_12  and  C_14 
REMARK    5  A    between atoms: C_14  and  N_15 
ROOT
HETATM    1  N   UNL     1       3.766   1.419  -1.341  1.00  0.00    -0.325 N 
HETATM    2  C   UNL     1       2.498   1.276  -1.895  1.00  0.00     0.241 C 
HETATM    3  O   UNL     1       2.225   0.505  -2.809  1.00  0.00    -0.271 OA
HETATM    4  H   UNL     1       3.956   2.346  -0.967  1.00  0.00     0.169 HD
ENDROOT
BRANCH   1   5
HETATM    5  C   UNL     1       4.272   0.375  -0.514  1.00  0.00     0.051 A 
HETATM    6  C   UNL     1       4.850   0.684   0.733  1.00  0.00     0.066 A 
HETATM    7  C   UNL     1       5.211  -0.335   1.622  1.00  0.00     0.020 A 
HETATM    8  C   UNL     1       5.050  -1.668   1.251  1.00  0.00     0.001 A 
HETATM    9  C   UNL     1       4.522  -1.983  -0.000  1.00  0.00     0.002 A 
HETATM   10  C   UNL     1       4.127  -0.968  -0.877  1.00  0.00     0.030 A 
BRANCH   6  11
HETATM   11  C   UNL     1       4.954   2.080   1.224  1.00  0.00     0.295 C 
HETATM   12  O   UNL     1       4.493   2.429   2.298  1.00  0.00    -0.259 OA
BRANCH  11  13
HETATM   13  O   UNL     1       5.446   2.958   0.311  1.00  0.00    -0.322 OA
HETATM   14  C   UNL     1       6.742   2.667  -0.234  1.00  0.00     0.213 C 
ENDBRANCH  11  13
ENDBRANCH   6  11
ENDBRANCH   1   5
BRANCH   2  15
HETATM   15  C   UNL     1       1.477   2.176  -1.228  1.00  0.00     0.248 C 
BRANCH  15  16
HETATM   16  N   UNL     1       0.395   1.409  -0.663  1.00  0.00    -0.274 N 
HETATM   17  N   UNL     1       0.627   0.501   0.301  1.00  0.00     0.005 NA
HETATM   18  N   UNL     1      -0.546   0.026   0.695  1.00  0.00    -0.164 NA
HETATM   19  C   UNL     1      -1.528   0.683   0.002  1.00  0.00     0.065 A 
HETATM   20  C   UNL     1      -0.944   1.581  -0.860  1.00  0.00     0.136 A 
HETATM   21  C   UNL     1      -2.954   0.397   0.245  1.00  0.00     0.073 C 
ENDBRANCH  15  16
ENDBRANCH   2  15
TORSDOF 5
