REMARK  4 active torsions:
REMARK  status: ('A' for Active; 'I' for Inactive)
REMARK    1  A    between atoms: S_2  and  C_3 
REMARK    2  A    between atoms: C_3  and  C_4 
REMARK    3  A    between atoms: C_4  and  O_5 
REMARK    4  A    between atoms: C_4  and  C_6 
ROOT
HETATM    1  C   UNL     1       0.348   0.131  -0.860  1.00  0.00     0.064 A 
HETATM    2  C   UNL     1      -0.289   1.050  -1.688  1.00  0.00     0.049 A 
HETATM    3  C   UNL     1      -0.140   2.404  -1.411  1.00  0.00     0.014 A 
HETATM    4 BR   UNL     1      -1.080   3.679  -2.441  1.00  0.00    -0.051 Br
HETATM    5  C   UNL     1       0.663   2.822  -0.361  1.00  0.00     0.038 A 
HETATM    6  C   UNL     1       1.283   1.848   0.393  1.00  0.00     0.118 A 
HETATM    7  N   UNL     1       1.124   0.522   0.185  1.00  0.00    -0.263 NA
ENDROOT
BRANCH   1   8
HETATM    8  C   UNL     1       0.088  -1.358  -1.032  1.00  0.00     0.176 C 
BRANCH   8   9
HETATM    9  C   UNL     1      -0.801  -1.912   0.108  1.00  0.00     0.077 C 
BRANCH   9  10
HETATM   10  S   UNL     1      -2.598  -1.500   0.000  1.00  0.00    -0.292 SA
HETATM   11  C   UNL     1      -2.598  -0.500   0.000  1.00  0.00     0.248 C 
ENDBRANCH   9  10
ENDBRANCH   8   9
BRANCH   8  12
HETATM   12  O   UNL     1       1.348  -2.042  -1.094  1.00  0.00    -0.389 OA
HETATM   13  H   UNL     1       1.265  -2.897  -0.646  1.00  0.00     0.210 HD
ENDBRANCH   8  12
ENDBRANCH   1   8
TORSDOF 4
