REMARK  16 active torsions:
REMARK  status: ('A' for Active; 'I' for Inactive)
REMARK    1  A    between atoms: C_2  and  C_4 
REMARK    2  A    between atoms: C_4  and  C_5 
REMARK    3  A    between atoms: C_5  and  C_7 
REMARK    4  A    between atoms: C_7  and  O_8 
REMARK    5  A    between atoms: C_7  and  C_27 
REMARK    6  A    between atoms: O_8  and  C_9 
REMARK    7  A    between atoms: C_9  and  C_10 
REMARK    8  A    between atoms: C_10  and  O_11 
REMARK    9  A    between atoms: C_10  and  C_12 
REMARK   10  A    between atoms: C_12  and  N_13 
REMARK   11  A    between atoms: C_27  and  C_29 
REMARK   12  A    between atoms: C_29  and  C_30 
REMARK   13  A    between atoms: C_29  and  C_33 
REMARK   14  A    between atoms: C_30  and  C_31 
REMARK   15  A    between atoms: C_31  and  O_32 
REMARK   16  A    between atoms: C_33  and  C_35 
ROOT
HETATM    1  C   UNL     1       7.062  -1.500   0.000  1.00  0.00     0.261 C 
ENDROOT
BRANCH   1   2
HETATM    2  C   UNL     1       7.800  -0.897   1.413  1.00  0.00     0.169 C 
HETATM    3  O   UNL     1       7.354  -0.181   2.319  1.00  0.00    -0.294 OA
BRANCH   2   4
HETATM    4  C   UNL     1       9.230  -0.987   1.431  1.00  0.00     0.159 C 
BRANCH   4   5
HETATM    5  C   UNL     1       9.660  -1.000   0.000  1.00  0.00     0.130 C 
HETATM    6  C   UNL     1      10.526  -1.500   0.000  1.00  0.00     0.091 C 
HETATM    7  O   UNL     1       9.144  -0.333  -0.894  1.00  0.00    -0.298 OA
ENDBRANCH   4   5
ENDBRANCH   2   4
ENDBRANCH   1   2
BRANCH   1   8
HETATM    8  O   UNL     1       5.731  -1.492   1.028  1.00  0.00    -0.368 OA
BRANCH   8   9
HETATM    9  C   UNL     1       5.061  -0.232   1.266  1.00  0.00     0.202 C 
BRANCH   9  10
HETATM   10  C   UNL     1       5.130   0.732   0.076  1.00  0.00     0.155 C 
BRANCH  10  11
HETATM   11  O   UNL     1       4.310   1.879   0.303  1.00  0.00    -0.392 OA
HETATM   12  H   UNL     1       4.846   2.678   0.160  1.00  0.00     0.210 HD
ENDBRANCH  10  11
BRANCH  10  13
HETATM   13  C   UNL     1       4.832  -0.028  -1.263  1.00  0.00     0.141 C 
BRANCH  13  14
HETATM   14  N   UNL     1       3.447  -0.393  -1.446  1.00  0.00    -0.185 NA
HETATM   15  C   UNL     1       2.842  -1.327  -0.656  1.00  0.00     0.215 C 
HETATM   16  C   UNL     1       1.000  -1.000   0.000  1.00  0.00     0.038 C 
HETATM   17  O   UNL     1       3.635  -2.136  -0.188  1.00  0.00    -0.278 OA
HETATM   18  C   UNL     1       1.000   0.000   0.000  1.00  0.00    -0.016 A 
HETATM   19  C   UNL     1      -0.473  -1.246  -0.612  1.00  0.00     0.020 C 
HETATM   20  C   UNL     1       1.259  -1.966   0.000  1.00  0.00     0.025 C 
HETATM   21  C   UNL     1       1.866   0.500   0.000  1.00  0.00     0.093 A 
HETATM   22  C   UNL     1       1.000   1.000   0.000  1.00  0.00    -0.025 A 
HETATM   23  C   UNL     1      -0.648  -0.490   0.680  1.00  0.00     0.012 C 
HETATM   24  C   UNL     1       0.134   1.500   0.000  1.00  0.00     0.031 A 
HETATM   25  C   UNL     1       1.000   2.000   0.000  1.00  0.00     0.016 C 
HETATM   26  C   UNL     1       2.653   0.603  -1.380  1.00  0.00     0.212 C 
HETATM   27  O   UNL     1       2.382   1.316  -2.357  1.00  0.00    -0.279 OA
ENDBRANCH  13  14
ENDBRANCH  10  13
ENDBRANCH   9  10
ENDBRANCH   8   9
ENDBRANCH   1   8
BRANCH   1  28
HETATM   28  C   UNL     1       7.062  -2.500   0.000  1.00  0.00     0.174 C 
HETATM   29  O   UNL     1       8.181  -2.990   0.294  1.00  0.00    -0.294 OA
BRANCH  28  30
HETATM   30  C   UNL     1       6.056  -3.730  -0.129  1.00  0.00     0.135 C 
BRANCH  30  31
HETATM   31  C   UNL     1       5.083  -4.039  -1.282  1.00  0.00     0.046 C 
BRANCH  31  32
HETATM   32  C   UNL     1       3.756  -4.660  -0.719  1.00  0.00     0.165 C 
BRANCH  32  33
HETATM   33  O   UNL     1       3.675  -6.066  -0.866  1.00  0.00    -0.401 OA
HETATM   34  H   UNL     1       4.281  -6.466  -0.200  1.00  0.00     0.209 HD
ENDBRANCH  32  33
ENDBRANCH  31  32
ENDBRANCH  30  31
BRANCH  30  35
HETATM   35  C   UNL     1       6.602  -5.129   0.289  1.00  0.00     0.174 C 
HETATM   36  O   UNL     1       6.018  -5.652   1.253  1.00  0.00    -0.291 OA
BRANCH  35  37
HETATM   37  C   UNL     1       7.768  -5.889  -0.383  1.00  0.00     0.060 C 
HETATM   38  C   UNL     1       7.810  -7.311  -0.304  1.00  0.00     0.185 C 
HETATM   39  C   UNL     1       9.113  -7.866  -0.262  1.00  0.00     0.056 C 
HETATM   40  O   UNL     1       6.786  -8.074  -0.283  1.00  0.00    -0.287 OA
HETATM   41  C   UNL     1      10.285  -7.112  -0.357  1.00  0.00     0.004 C 
HETATM   42  C   UNL     1      10.188  -5.778  -0.686  1.00  0.00     0.001 C 
HETATM   43  C   UNL     1       8.925  -5.203  -0.792  1.00  0.00     0.019 C 
ENDBRANCH  35  37
ENDBRANCH  30  35
ENDBRANCH  28  30
ENDBRANCH   1  28
TORSDOF 16
