REMARK  14 active torsions:
REMARK  status: ('A' for Active; 'I' for Inactive)
REMARK    1  A    between atoms: C_2  and  C_4 
REMARK    2  A    between atoms: C_4  and  C_5 
REMARK    3  A    between atoms: C_5  and  C_7 
REMARK    4  A    between atoms: C_7  and  O_8 
REMARK    5  A    between atoms: C_7  and  C_9 
REMARK    6  A    between atoms: C_9  and  C_11 
REMARK    7  A    between atoms: C_11  and  C_12 
REMARK    8  A    between atoms: C_11  and  C_15 
REMARK    9  A    between atoms: C_12  and  C_13 
REMARK   10  A    between atoms: C_13  and  O_14 
REMARK   11  A    between atoms: C_15  and  N_16 
REMARK   12  A    between atoms: C_15  and  C_24 
REMARK   13  A    between atoms: N_16  and  C_17 
REMARK   14  A    between atoms: C_21  and  O_22 
ROOT
HETATM    1  C   UNL     1      -0.407   0.783  -0.213  1.00  0.00     0.269 C 
ENDROOT
BRANCH   1   2
HETATM    2  C   UNL     1      -0.211   2.070  -1.161  1.00  0.00     0.098 C 
BRANCH   2   3
HETATM    3  C   UNL     1       0.000   3.000   0.000  1.00  0.00     0.169 C 
HETATM    4  O   UNL     1       0.830   2.618   0.889  1.00  0.00    -0.294 OA
BRANCH   3   5
HETATM    5  C   UNL     1       0.000   4.000   0.000  1.00  0.00     0.257 C 
BRANCH   5   6
HETATM    6  C   UNL     1       0.248   4.684   1.507  1.00  0.00     0.169 C 
HETATM    7  O   UNL     1      -0.300   4.374   2.563  1.00  0.00    -0.294 OA
BRANCH   6   8
HETATM    8  C   UNL     1       1.018   6.010   1.390  1.00  0.00     0.159 C 
BRANCH   8   9
HETATM    9  C   UNL     1       1.732   6.000   0.000  1.00  0.00     0.130 C 
HETATM   10  C   UNL     1       2.598   5.500   0.000  1.00  0.00     0.091 C 
HETATM   11  O   UNL     1       1.232   6.693  -0.899  1.00  0.00    -0.298 OA
ENDBRANCH   8   9
ENDBRANCH   6   8
ENDBRANCH   5   6
BRANCH   5  12
HETATM   12  O   UNL     1       1.063   4.004  -1.098  1.00  0.00    -0.380 OA
HETATM   13  H   UNL     1       0.857   4.689  -1.760  1.00  0.00     0.211 HD
ENDBRANCH   5  12
ENDBRANCH   3   5
ENDBRANCH   2   3
BRANCH   2  14
HETATM   14  C   UNL     1      -1.087   2.939  -2.370  1.00  0.00     0.041 C 
BRANCH  14  15
HETATM   15  C   UNL     1      -1.605   4.492  -2.124  1.00  0.00     0.165 C 
BRANCH  15  16
HETATM   16  O   UNL     1      -2.772   4.866  -2.853  1.00  0.00    -0.401 OA
HETATM   17  H   UNL     1      -3.048   5.743  -2.502  1.00  0.00     0.209 HD
ENDBRANCH  15  16
ENDBRANCH  14  15
ENDBRANCH   2  14
ENDBRANCH   1   2
BRANCH   1  18
HETATM   18  N   UNL     1      -1.491   0.973   0.816  1.00  0.00     0.100 NA
HETATM   19  H   UNL     1      -1.628   0.054   1.262  1.00  0.00     0.317 HD
BRANCH  18  20
HETATM   20  C   UNL     1      -2.598   1.500   0.000  1.00  0.00     0.247 C 
HETATM   21  C   UNL     1      -4.153   0.824   0.090  1.00  0.00     0.203 C 
HETATM   22  O   UNL     1      -5.304   1.647  -0.008  1.00  0.00    -0.386 OA
HETATM   23  C   UNL     1      -5.095   2.760   0.817  1.00  0.00     0.199 C 
HETATM   24  C   UNL     1      -3.905   3.442   0.198  1.00  0.00     0.144 C 
HETATM   25  C   UNL     1      -2.598   2.500   0.000  1.00  0.00     0.071 C 
BRANCH  24  26
HETATM   26  O   UNL     1      -3.579   4.656   0.886  1.00  0.00    -0.393 OA
HETATM   27  H   UNL     1      -4.403   5.170   0.955  1.00  0.00     0.210 HD
ENDBRANCH  24  26
ENDBRANCH  18  20
ENDBRANCH   1  18
BRANCH   1  28
HETATM   28  C   UNL     1       0.658  -0.321  -0.298  1.00  0.00     0.025 A 
HETATM   29  C   UNL     1       0.390  -1.557  -0.903  1.00  0.00     0.180 A 
HETATM   30  C   UNL     1       1.485  -2.433  -0.891  1.00  0.00     0.055 A 
HETATM   31  O   UNL     1      -0.729  -1.869  -1.417  1.00  0.00    -0.288 OA
HETATM   32  C   UNL     1       2.755  -2.156  -0.328  1.00  0.00     0.004 A 
HETATM   33  C   UNL     1       3.002  -0.956   0.260  1.00  0.00     0.001 A 
HETATM   34  C   UNL     1       1.959  -0.035   0.270  1.00  0.00     0.013 A 
ENDBRANCH   1  28
TORSDOF 14
