REMARK  7 active torsions:
REMARK  status: ('A' for Active; 'I' for Inactive)
REMARK    1  A    between atoms: N_4  and  C_5 
REMARK    2  A    between atoms: C_5  and  C_6 
REMARK    3  A    between atoms: C_6  and  C_7 
REMARK    4  A    between atoms: C_7  and  O_8 
REMARK    5  A    between atoms: O_8  and  C_9 
REMARK    6  A    between atoms: C_15  and  C_16 
REMARK    7  A    between atoms: C_16  and  O_18 
ROOT
HETATM    1  C   UNL     1       7.608  -1.656   0.309  1.00  0.00     0.085 A 
HETATM    2  C   UNL     1       8.632  -0.705   0.447  1.00  0.00     0.041 A 
HETATM    3  C   UNL     1       9.966  -1.042   0.207  1.00  0.00     0.045 A 
HETATM    4  C   UNL     1      10.284  -2.339  -0.169  1.00  0.00     0.117 A 
HETATM    5  F   UNL     1      11.562  -2.664  -0.405  1.00  0.00    -0.206 F 
HETATM    6  C   UNL     1       9.299  -3.306  -0.298  1.00  0.00     0.063 A 
HETATM    7  C   UNL     1       7.962  -2.968  -0.045  1.00  0.00     0.073 A 
ENDROOT
BRANCH   1   8
HETATM    8  O   UNL     1       6.371  -1.131   0.564  1.00  0.00    -0.350 OA
BRANCH   8   9
HETATM    9  C   UNL     1       5.231  -1.826   0.070  1.00  0.00     0.177 C 
BRANCH   9  10
HETATM   10  C   UNL     1       4.037  -0.889   0.115  1.00  0.00     0.048 C 
BRANCH  10  11
HETATM   11  C   UNL     1       2.800  -1.571  -0.458  1.00  0.00     0.148 C 
BRANCH  11  12
HETATM   12  N   UNL     1       1.610  -0.802  -0.177  1.00  0.00    -0.283 N 
HETATM   13  C   UNL     1       1.294   0.434  -0.647  1.00  0.00     0.136 A 
HETATM   14  C   UNL     1       0.237   0.822   0.145  1.00  0.00     0.065 A 
HETATM   15  C   UNL     1      -0.461   2.116   0.217  1.00  0.00     0.073 C 
HETATM   16  N   UNL     1      -0.092  -0.206   0.989  1.00  0.00    -0.164 NA
HETATM   17  N   UNL     1       0.756  -1.203   0.780  1.00  0.00     0.004 NA
ENDBRANCH  11  12
ENDBRANCH  10  11
ENDBRANCH   9  10
ENDBRANCH   8   9
ENDBRANCH   1   8
BRANCH   7  18
HETATM   18  C   UNL     1       7.014  -4.079  -0.166  1.00  0.00     0.179 C 
HETATM   19  O   UNL     1       6.579  -4.542  -1.201  1.00  0.00    -0.646 OA
BRANCH  18  20
HETATM   20  O   UNL     1       6.700  -4.564   1.046  1.00  0.00    -0.773 OA
HETATM   21  H   UNL     1       6.090  -5.311   0.873  1.00  0.00     0.167 HD
ENDBRANCH  18  20
ENDBRANCH   7  18
TORSDOF 7
