REMARK  4 active torsions:
REMARK  status: ('A' for Active; 'I' for Inactive)
REMARK    1  A    between atoms: C_2  and  C_3 
REMARK    2  A    between atoms: C_3  and  C_4 
REMARK    3  A    between atoms: C_6  and  C_7 
REMARK    4  A    between atoms: C_7  and  S_9 
ROOT
HETATM    1  C   UNL     1       3.464   0.000   0.000  1.00  0.00    -0.080 C 
HETATM    2  C   UNL     1       3.464   1.000   0.000  1.00  0.00     0.043 C 
HETATM    3  C   UNL     1       2.441  -0.644  -0.624  1.00  0.00     0.064 C 
ENDROOT
BRANCH   1   4
HETATM    4  C   UNL     1       4.565  -0.864   0.668  1.00  0.00     0.033 C 
BRANCH   4   5
HETATM    5  C   UNL     1       4.861  -2.278   0.131  1.00  0.00    -0.000 C 
HETATM    6  C   UNL     1       3.851  -3.352   0.529  1.00  0.00     0.005 C 
ENDBRANCH   4   5
ENDBRANCH   1   4
BRANCH   3   7
HETATM    7  C   UNL     1       1.276   0.044  -1.264  1.00  0.00     0.208 C 
HETATM    8  O   UNL     1       1.309   1.150  -1.778  1.00  0.00    -0.281 OA
BRANCH   7   9
HETATM    9  S   UNL     1      -0.213  -0.864  -1.086  1.00  0.00    -0.093 SA
HETATM   10  C   UNL     1      -0.916   0.157   0.230  1.00  0.00     0.099 C 
ENDBRANCH   7   9
ENDBRANCH   3   7
TORSDOF 4
