REMARK  3 active torsions:
REMARK  status: ('A' for Active; 'I' for Inactive)
REMARK    1  A    between atoms: S_2  and  C_3 
REMARK       I    between atoms: C_3  and  N_5 
REMARK    2  A    between atoms: N_5  and  C_6 
REMARK    3  A    between atoms: C_6  and  C_7 
ROOT
HETATM    1  C   UNL     1       2.940  -0.149   0.353  1.00  0.00     0.279 C 
HETATM    2  O   UNL     1       2.811   0.138   1.530  1.00  0.00    -0.260 OA
HETATM    3  N   UNL     1       2.028   0.038  -0.639  1.00  0.00    -0.351 N 
HETATM    4  H   UNL     1       2.305  -0.256  -1.566  1.00  0.00     0.163 HD
ENDROOT
BRANCH   3   5
HETATM    5  C   UNL     1       0.768   0.724  -0.452  1.00  0.00     0.132 C 
BRANCH   5   6
HETATM    6  C   UNL     1      -0.277  -0.067   0.347  1.00  0.00     0.026 C 
HETATM    7  C   UNL     1      -0.539  -1.455  -0.164  1.00  0.00    -0.024 C 
HETATM    8  C   UNL     1      -1.845  -1.709  -0.293  1.00  0.00    -0.030 C 
HETATM    9  C   UNL     1      -2.684  -0.541   0.098  1.00  0.00     0.027 C 
HETATM   10  C   UNL     1      -1.667   0.592   0.245  1.00  0.00     0.014 C 
ENDBRANCH   5   6
ENDBRANCH   3   5
BRANCH   1  11
HETATM   11  S   UNL     1       4.386  -0.862  -0.309  1.00  0.00    -0.074 SA
HETATM   12  C   UNL     1       4.182  -2.523   0.360  1.00  0.00     0.100 C 
ENDBRANCH   1  11
TORSDOF 3
