REMARK  3 active torsions:
REMARK  status: ('A' for Active; 'I' for Inactive)
REMARK       I    between atoms: N_2  and  C_3 
REMARK       I    between atoms: C_3  and  N_4 
REMARK    1  A    between atoms: N_4  and  C_5 
REMARK    2  A    between atoms: C_5  and  C_6 
REMARK    3  A    between atoms: C_6  and  S_8 
ROOT
HETATM    1  C   UNL     1       2.598  -1.500   0.000  1.00  0.00     0.165 C 
HETATM    2  N   UNL     1       2.598  -0.500   0.000  1.00  0.00    -0.229 N 
HETATM    3  C   UNL     1       1.613   0.415  -0.263  1.00  0.00     0.691 C 
HETATM    4  N   UNL     1       1.700   1.687  -0.174  1.00  0.00    -0.100 NA
HETATM    5  N   UNL     1       0.407  -0.140  -0.584  1.00  0.00    -0.229 N 
HETATM    6  C   UNL     1      -0.852   0.477  -0.223  1.00  0.00     0.165 C 
HETATM    7  H   UNL     1       3.330  -0.022   0.517  1.00  0.00     0.177 HD
HETATM    8  H   UNL     1       0.361  -1.144  -0.678  1.00  0.00     0.177 HD
ENDROOT
BRANCH   4   9
HETATM    9  C   UNL     1       2.841   2.527   0.195  1.00  0.00     0.259 C 
BRANCH   9  10
HETATM   10  C   UNL     1       4.203   2.032  -0.248  1.00  0.00     0.205 C 
HETATM   11  O   UNL     1       4.658   2.136  -1.379  1.00  0.00    -0.284 OA
BRANCH  10  12
HETATM   12  S   UNL     1       5.135   1.241   1.043  1.00  0.00    -0.095 SA
HETATM   13  C   UNL     1       6.150   0.153   0.019  1.00  0.00     0.099 C 
ENDBRANCH  10  12
ENDBRANCH   9  10
ENDBRANCH   4   9
TORSDOF 3
