REMARK  3 active torsions:
REMARK  status: ('A' for Active; 'I' for Inactive)
REMARK    1  A    between atoms: S_2  and  C_3 
REMARK    2  A    between atoms: C_3  and  C_5 
REMARK    3  A    between atoms: C_5  and  C_6 
ROOT
HETATM    1  C   UNL     1       1.978   0.900  -0.003  1.00  0.00     0.156 C 
HETATM    2  O   UNL     1       2.016   2.118   0.094  1.00  0.00    -0.288 OA
ENDROOT
BRANCH   1   3
HETATM    3  S   UNL     1       3.464   0.000   0.000  1.00  0.00    -0.232 SA
HETATM    4  C   UNL     1       3.464  -1.000   0.000  1.00  0.00     0.270 C 
ENDBRANCH   1   3
BRANCH   1   5
HETATM    5  C   UNL     1       0.684   0.133  -0.120  1.00  0.00     0.103 C 
BRANCH   5   6
HETATM    6  C   UNL     1      -0.486   1.106  -0.132  1.00  0.00     0.123 C 
HETATM    7 CL   UNL     1      -2.015   0.228  -0.381  1.00  0.00    -0.130 Cl
ENDBRANCH   5   6
ENDBRANCH   1   5
TORSDOF 3
