REMARK  5 active torsions:
REMARK  status: ('A' for Active; 'I' for Inactive)
REMARK    1  A    between atoms: S_2  and  C_3 
REMARK    2  A    between atoms: C_3  and  C_4 
REMARK    3  A    between atoms: C_3  and  C_6 
REMARK    4  A    between atoms: C_4  and  O_5 
REMARK    5  A    between atoms: C_6  and  N_7 
ROOT
HETATM    1  N   UNL     1      -0.761  -0.544   1.090  1.00  0.00    -0.379 N 
HETATM    2  C   UNL     1      -2.030  -0.164   1.160  1.00  0.00     0.083 C 
HETATM    3  C   UNL     1      -2.153   0.987   0.473  1.00  0.00     0.002 C 
HETATM    4  C   UNL     1      -0.866   1.500   0.000  1.00  0.00     0.007 A 
HETATM    5  C   UNL     1      -0.866   2.500   0.000  1.00  0.00     0.022 C 
HETATM    6  C   UNL     1      -0.492   0.734  -0.934  1.00  0.00     0.036 A 
HETATM    7  C   UNL     1       0.000   0.000   0.000  1.00  0.00     0.044 A 
HETATM    8  C   UNL     1       0.866  -0.500   0.000  1.00  0.00     0.040 C 
ENDROOT
BRANCH   1   9
HETATM    9  C   UNL     1      -0.169  -1.387   2.218  1.00  0.00     0.137 C 
BRANCH   9  10
HETATM   10  C   UNL     1       0.392  -2.743   1.766  1.00  0.00     0.057 C 
BRANCH  10  11
HETATM   11  S   UNL     1       0.000  -3.000   0.000  1.00  0.00    -0.287 SA
HETATM   12  C   UNL     1      -0.866  -3.500   0.000  1.00  0.00     0.249 C 
ENDBRANCH  10  11
BRANCH  10  13
HETATM   13  C   UNL     1       1.930  -2.912   1.911  1.00  0.00     0.178 C 
BRANCH  13  14
HETATM   14  O   UNL     1       2.267  -4.292   1.770  1.00  0.00    -0.400 OA
HETATM   15  H   UNL     1       2.166  -4.529   0.823  1.00  0.00     0.209 HD
ENDBRANCH  13  14
ENDBRANCH  10  13
ENDBRANCH   9  10
ENDBRANCH   1   9
TORSDOF 5
