REMARK  6 active torsions:
REMARK  status: ('A' for Active; 'I' for Inactive)
REMARK    1  A    between atoms: C_4  and  C_5 
REMARK    2  A    between atoms: C_5  and  N_6 
REMARK    3  A    between atoms: C_5  and  C_7 
REMARK    4  A    between atoms: C_7  and  O_9 
REMARK    5  A    between atoms: O_9  and  C_10 
REMARK    6  A    between atoms: C_15  and  O_16 
ROOT
HETATM    1  C   UNL     1       2.167   0.455   0.306  1.00  0.00     0.298 C 
HETATM    2  O   UNL     1       1.747   1.218   1.173  1.00  0.00    -0.262 OA
ENDROOT
BRANCH   1   3
HETATM    3  C   UNL     1       3.596   0.490  -0.282  1.00  0.00     0.325 C 
BRANCH   3   4
HETATM    4  C   UNL     1       4.174  -0.833  -0.715  1.00  0.00     0.060 A 
HETATM    5  C   UNL     1       5.041  -1.646   0.050  1.00  0.00    -0.082 A 
HETATM    6  C   UNL     1       6.256  -1.835   0.517  1.00  0.00     0.015 C 
HETATM    7  C   UNL     1       3.753  -2.202  -0.028  1.00  0.00     0.045 A 
ENDBRANCH   3   4
BRANCH   3   8
HETATM    8  N   UNL     1       4.522   1.204   0.616  1.00  0.00     0.093 N 
HETATM    9  H   UNL     1       5.384   1.407   0.114  1.00  0.00     0.313 HD
HETATM   10  H   UNL     1       4.108   2.102   0.869  1.00  0.00     0.313 HD
ENDBRANCH   3   8
ENDBRANCH   1   3
BRANCH   1  11
HETATM   11  O   UNL     1       1.393  -0.431  -0.397  1.00  0.00    -0.272 OA
BRANCH  11  12
HETATM   12  C   UNL     1       0.020  -0.631  -0.106  1.00  0.00     0.133 A 
HETATM   13  C   UNL     1      -0.917   0.471  -0.061  1.00  0.00     0.099 A 
HETATM   14  C   UNL     1      -2.226   0.213  -0.011  1.00  0.00     0.039 A 
HETATM   15  C   UNL     1      -2.758  -1.188   0.023  1.00  0.00     0.205 A 
HETATM   16  O   UNL     1      -1.774  -2.239   0.064  1.00  0.00    -0.356 OA
HETATM   17  C   UNL     1      -0.456  -1.882  -0.053  1.00  0.00     0.175 A 
BRANCH  13  18
HETATM   18  O   UNL     1      -0.466   1.769  -0.064  1.00  0.00    -0.358 OA
HETATM   19  H   UNL     1       0.284   1.808   0.568  1.00  0.00     0.217 HD
ENDBRANCH  13  18
ENDBRANCH  11  12
ENDBRANCH   1  11
TORSDOF 6
