REMARK  3 active torsions:
REMARK  status: ('A' for Active; 'I' for Inactive)
REMARK    1  A    between atoms: S_2  and  C_3 
REMARK       I    between atoms: C_3  and  N_5 
REMARK    2  A    between atoms: N_5  and  C_6 
REMARK    3  A    between atoms: C_6  and  C_7 
ROOT
HETATM    1  C   UNL     1       0.782   2.128  -0.565  1.00  0.00     0.190 C 
ENDROOT
BRANCH   1   2
HETATM    2  N   UNL     1       2.093   2.505  -0.100  1.00  0.00    -0.346 N 
HETATM    3  C   UNL     1       3.186   2.224  -0.862  1.00  0.00     0.279 C 
HETATM    4  O   UNL     1       3.184   1.912  -2.041  1.00  0.00    -0.260 OA
HETATM    5  H   UNL     1       2.256   2.568   0.896  1.00  0.00     0.163 HD
BRANCH   3   6
HETATM    6  S   UNL     1       4.624   2.227   0.121  1.00  0.00    -0.074 SA
HETATM    7  C   UNL     1       5.144   0.532  -0.238  1.00  0.00     0.100 C 
ENDBRANCH   3   6
ENDBRANCH   1   2
BRANCH   1   8
HETATM    8  C   UNL     1       0.593   0.692  -0.265  1.00  0.00     0.098 A 
HETATM    9  O   UNL     1      -0.028   0.407   0.899  1.00  0.00    -0.216 OA
HETATM   10  N   UNL     1      -0.084  -0.947   1.064  1.00  0.00    -0.133 NA
HETATM   11  C   UNL     1       0.500  -1.539   0.000  1.00  0.00     0.060 A 
HETATM   12  C   UNL     1       0.947  -0.491  -0.873  1.00  0.00     0.065 A 
HETATM   13  C   UNL     1       0.500  -2.539   0.000  1.00  0.00     0.072 C 
ENDBRANCH   1   8
TORSDOF 3
