REMARK  2 active torsions:
REMARK  status: ('A' for Active; 'I' for Inactive)
REMARK    1  A    between atoms: S_2  and  C_3 
REMARK    2  A    between atoms: C_3  and  C_5 
ROOT
HETATM    1  C   UNL     1       0.190   1.653  -0.529  1.00  0.00     0.173 C 
HETATM    2  O   UNL     1       0.162   2.452  -1.459  1.00  0.00    -0.287 OA
ENDROOT
BRANCH   1   3
HETATM    3  S   UNL     1       1.732   1.000   0.000  1.00  0.00    -0.231 SA
HETATM    4  C   UNL     1       1.732   0.000   0.000  1.00  0.00     0.270 C 
ENDBRANCH   1   3
BRANCH   1   5
HETATM    5  C   UNL     1      -1.048   1.231   0.258  1.00  0.00     0.156 C 
HETATM    6  C   UNL     1      -2.210   2.186   0.033  1.00  0.00     0.035 C 
HETATM    7 CL   UNL     1      -1.535  -0.412  -0.255  1.00  0.00    -0.117 Cl
ENDBRANCH   1   5
TORSDOF 2
