REMARK  1 active torsions:
REMARK  status: ('A' for Active; 'I' for Inactive)
REMARK    1  A    between atoms: N_4  and  C_5 
ROOT
HETATM    1  C   UNL     1       2.598   0.500   0.000  1.00  0.00     0.063 C 
HETATM    2  C   UNL     1       2.598   1.500   0.000  1.00  0.00     0.007 C 
HETATM    3  C   UNL     1       1.797   2.490  -0.668  1.00  0.00     0.067 C 
HETATM    4  N   UNL     1       0.646   1.800  -0.941  1.00  0.00    -0.333 N 
HETATM    5  C   UNL     1       0.866   0.500   0.000  1.00  0.00     0.002 C 
HETATM    6  C   UNL     1       0.384  -0.849  -0.881  1.00  0.00     0.035 C 
HETATM    7  C   UNL     1       1.866   0.500   0.000  1.00  0.00     0.052 C 
HETATM    8  C   UNL     1      -0.385   0.631   0.971  1.00  0.00     0.035 C 
ENDROOT
BRANCH   4   9
HETATM    9  C   UNL     1      -0.423   2.220  -1.677  1.00  0.00     0.355 C 
HETATM   10  O   UNL     1      -1.473   1.641  -1.837  1.00  0.00    -0.283 OA
ENDBRANCH   4   9
TORSDOF 1
