REMARK  2 active torsions:
REMARK  status: ('A' for Active; 'I' for Inactive)
REMARK    1  A    between atoms: C_4  and  C_5 
REMARK    2  A    between atoms: C_5  and  C_7 
ROOT
HETATM    1  C   UNL     1      -0.832   3.407   0.185  1.00  0.00     0.184 C 
HETATM    2  O   UNL     1       0.158   4.127   0.169  1.00  0.00    -0.287 OA
ENDROOT
BRANCH   1   3
HETATM    3  C   UNL     1      -0.711   1.951   0.223  1.00  0.00     0.038 C 
HETATM    4  C   UNL     1      -1.523   0.980   0.854  1.00  0.00     0.042 C 
HETATM    5  C   UNL     1      -1.276  -0.227   0.236  1.00  0.00     0.006 C 
HETATM    6  C   UNL     1      -2.041  -1.490   0.257  1.00  0.00     0.068 C 
HETATM    7  N   UNL     1      -0.109  -0.058  -0.461  1.00  0.00    -0.363 N 
HETATM    8  C   UNL     1       0.394   1.180  -0.135  1.00  0.00     0.019 C 
HETATM    9  H   UNL     1       0.379  -0.775  -0.982  1.00  0.00     0.165 HD
HETATM   10  C   UNL     1       1.849   1.453  -0.121  1.00  0.00     0.069 C 
ENDBRANCH   1   3
BRANCH   1  11
HETATM   11  C   UNL     1      -2.213   4.029   0.073  1.00  0.00     0.067 C 
HETATM   12  C   UNL     1      -3.513   3.639  -0.074  1.00  0.00    -0.000 C 
HETATM   13  C   UNL     1      -4.675   4.590  -0.043  1.00  0.00     0.200 C 
HETATM   14  C   UNL     1      -3.973   2.206  -0.190  1.00  0.00     0.069 C 
HETATM   15  C   UNL     1      -5.929   4.095   0.059  1.00  0.00     0.189 C 
HETATM   16  O   UNL     1      -4.333   5.804  -0.058  1.00  0.00    -0.286 OA
HETATM   17  O   UNL     1      -6.335   2.787   0.005  1.00  0.00    -0.359 OA
HETATM   18  C   UNL     1      -5.385   2.008  -0.713  1.00  0.00     0.179 C 
ENDBRANCH   1  11
TORSDOF 2
