REMARK  2 active torsions:
REMARK  status: ('A' for Active; 'I' for Inactive)
REMARK    1  A    between atoms: C_3  and  C_4 
REMARK    2  A    between atoms: C_4  and  C_5 
ROOT
HETATM    1  C   UNL     1       1.732   0.000   0.000  1.00  0.00     0.066 C 
HETATM    2  C   UNL     1       0.552  -0.605  -0.203  1.00  0.00    -0.010 C 
HETATM    3  C   UNL     1       0.352  -2.167  -0.183  1.00  0.00     0.069 C 
HETATM    4  C   UNL     1      -0.963  -2.675   0.289  1.00  0.00     0.179 C 
HETATM    5  O   UNL     1      -2.026  -1.855  -0.065  1.00  0.00    -0.360 OA
HETATM    6  C   UNL     1      -1.830  -0.401  -0.036  1.00  0.00     0.175 C 
HETATM    7  C   UNL     1      -0.641   0.224   0.043  1.00  0.00     0.136 C 
HETATM    8  O   UNL     1      -0.573   1.529   0.020  1.00  0.00    -0.190 OA
ENDROOT
BRANCH   1   9
HETATM    9  C   UNL     1       2.598  -0.500   0.000  1.00  0.00    -0.125 C 
BRANCH   9  10
HETATM   10  C   UNL     1       3.464  -1.000   0.000  1.00  0.00    -0.038 A 
HETATM   11  C   UNL     1       4.330  -1.500   0.000  1.00  0.00     0.043 A 
HETATM   12  C   UNL     1       4.330  -2.500   0.000  1.00  0.00     0.057 A 
ENDBRANCH   9  10
ENDBRANCH   1   9
TORSDOF 2
