REMARK  14 active torsions:
REMARK  status: ('A' for Active; 'I' for Inactive)
REMARK    1  A    between atoms: C_2  and  O_3 
REMARK    2  A    between atoms: C_2  and  C_4 
REMARK    3  A    between atoms: C_2  and  C_24 
REMARK    4  A    between atoms: C_7  and  O_8 
REMARK    5  A    between atoms: C_7  and  C_9 
REMARK    6  A    between atoms: C_9  and  C_11 
REMARK    7  A    between atoms: C_11  and  C_12 
REMARK    8  A    between atoms: C_11  and  C_15 
REMARK    9  A    between atoms: C_12  and  C_13 
REMARK   10  A    between atoms: C_13  and  O_14 
REMARK   11  A    between atoms: C_15  and  C_17 
REMARK   12  A    between atoms: C_22  and  O_23 
REMARK   13  A    between atoms: C_27  and  C_28 
REMARK   14  A    between atoms: N_29  and  N_30 
ROOT
HETATM    1  C   UNL     1      -1.366   0.634   0.000  1.00  0.00     0.147 A 
HETATM    2  C   UNL     1      -2.469   0.435   0.870  1.00  0.00     0.165 A 
HETATM    3  O   UNL     1      -2.595   0.012   1.980  1.00  0.00    -0.295 OA
HETATM    4  C   UNL     1      -2.866   1.500   0.000  1.00  0.00     0.302 A 
ENDROOT
BRANCH   4   5
HETATM    5  O   UNL     1      -2.955   2.406   1.418  1.00  0.00    -0.383 OA
HETATM    6  H   UNL     1      -2.115   2.378   1.916  1.00  0.00     0.211 HD
ENDBRANCH   4   5
BRANCH   4   7
HETATM    7  C   UNL     1      -3.866   1.500   0.000  1.00  0.00     0.172 C 
HETATM    8  O   UNL     1      -4.423   0.473  -0.468  1.00  0.00    -0.294 OA
BRANCH   7   9
HETATM    9  C   UNL     1      -4.853   2.753  -0.037  1.00  0.00     0.135 C 
BRANCH   9  10
HETATM   10  C   UNL     1      -4.198   4.154   0.233  1.00  0.00     0.046 C 
BRANCH  10  11
HETATM   11  C   UNL     1      -4.910   5.426  -0.217  1.00  0.00     0.165 C 
BRANCH  11  12
HETATM   12  O   UNL     1      -6.217   5.189  -0.685  1.00  0.00    -0.401 OA
HETATM   13  H   UNL     1      -6.741   4.966   0.112  1.00  0.00     0.209 HD
ENDBRANCH  11  12
ENDBRANCH  10  11
ENDBRANCH   9  10
BRANCH   9  14
HETATM   14  C   UNL     1      -6.138   2.573   0.806  1.00  0.00     0.173 C 
HETATM   15  O   UNL     1      -6.687   3.521   1.380  1.00  0.00    -0.291 OA
BRANCH  14  16
HETATM   16  C   UNL     1      -6.947   1.329   0.693  1.00  0.00     0.044 C 
HETATM   17  C   UNL     1      -8.194   1.386   0.058  1.00  0.00     0.079 C 
HETATM   18  C   UNL     1      -8.894   0.217  -0.234  1.00  0.00     0.037 C 
HETATM   19  C   UNL     1      -8.361  -1.019   0.132  1.00  0.00     0.003 C 
HETATM   20  C   UNL     1      -7.164  -1.076   0.846  1.00  0.00     0.001 C 
HETATM   21  C   UNL     1      -6.479   0.100   1.164  1.00  0.00     0.018 C 
BRANCH  17  22
HETATM   22  O   UNL     1      -8.788   2.565  -0.300  1.00  0.00    -0.360 OA
HETATM   23  H   UNL     1      -8.402   3.268   0.259  1.00  0.00     0.217 HD
ENDBRANCH  17  22
ENDBRANCH  14  16
ENDBRANCH   9  14
ENDBRANCH   7   9
ENDBRANCH   4   7
BRANCH   1  24
HETATM   24  C   UNL     1      -0.866   1.500   0.000  1.00  0.00     0.051 C 
HETATM   25  C   UNL     1      -0.366   2.366   0.000  1.00  0.00     0.042 C 
BRANCH  24  26
HETATM   26  O   UNL     1      -0.591   1.416  -1.665  1.00  0.00    -0.393 OA
HETATM   27  H   UNL     1      -1.097   2.129  -2.099  1.00  0.00     0.210 HD
ENDBRANCH  24  26
BRANCH  24  28
HETATM   28  C   UNL     1       0.767   0.691   0.460  1.00  0.00    -0.032 C 
HETATM   29  C   UNL     1       0.857  -0.606   1.066  1.00  0.00     0.010 C 
HETATM   30  C   UNL     1       2.036  -1.370   0.997  1.00  0.00     0.013 C 
HETATM   31  C   UNL     1       3.204  -0.821   0.486  1.00  0.00    -0.018 C 
HETATM   32  C   UNL     1       3.231   0.516   0.116  1.00  0.00     0.013 C 
HETATM   33  C   UNL     1       2.032   1.254   0.085  1.00  0.00     0.010 C 
BRANCH  31  34
HETATM   34  C   UNL     1       4.406  -1.654   0.263  1.00  0.00     0.143 C 
HETATM   35  N   UNL     1       4.343  -2.950   0.279  1.00  0.00    -0.215 NA
BRANCH  35  36
HETATM   36  N   UNL     1       5.515  -3.568   0.010  1.00  0.00    -0.227 NA
HETATM   37  H   UNL     1       5.341  -4.560  -0.177  1.00  0.00     0.145 HD
HETATM   38  H   UNL     1       5.981  -3.198  -0.820  1.00  0.00     0.145 HD
ENDBRANCH  35  36
ENDBRANCH  31  34
ENDBRANCH  24  28
ENDBRANCH   1  24
TORSDOF 14
