REMARK  2 active torsions:
REMARK  status: ('A' for Active; 'I' for Inactive)
REMARK    1  A    between atoms: C_2  and  O_5 
REMARK    2  A    between atoms: O_5  and  C_6 
ROOT
HETATM    1  C   UNL     1       2.050   1.558  -1.327  1.00  0.00     0.045 C 
HETATM    2  C   UNL     1       2.500   0.866   0.000  1.00  0.00     0.059 C 
HETATM    3  C   UNL     1       2.500  -0.134   0.000  1.00  0.00     0.045 C 
HETATM    4  C   UNL     1       3.959   1.412   0.191  1.00  0.00     0.045 C 
ENDROOT
BRANCH   2   5
HETATM    5  O   UNL     1       1.785   1.560   1.099  1.00  0.00    -0.318 OA
BRANCH   5   6
HETATM    6  C   UNL     1       0.440   1.571   1.217  1.00  0.00     0.398 C 
HETATM    7  O   UNL     1      -0.158   2.143   2.117  1.00  0.00    -0.276 OA
ENDBRANCH   5   6
ENDBRANCH   2   5
TORSDOF 2
