REMARK  2 active torsions:
REMARK  status: ('A' for Active; 'I' for Inactive)
REMARK    1  A    between atoms: C_2  and  N_3 
REMARK    2  A    between atoms: N_3  and  C_4 
ROOT
HETATM    1  C   UNL     1       0.948  -0.403  -0.000  1.00  0.00     0.040 A 
HETATM    2  C   UNL     1       0.919  -1.854  -0.000  1.00  0.00     0.046 A 
HETATM    3  C   UNL     1      -0.247  -2.513  -0.000  1.00  0.00     0.093 A 
HETATM    4  N   UNL     1      -1.430  -1.824   0.000  1.00  0.00    -0.334 N 
HETATM    5  C   UNL     1      -1.510  -0.455  -0.000  1.00  0.00     0.247 A 
HETATM    6  O   UNL     1      -2.575   0.150  -0.000  1.00  0.00    -0.268 OA
HETATM    7  C   UNL     1      -0.216   0.273   0.000  1.00  0.00     0.104 A 
HETATM    8  H   UNL     1      -2.311  -2.322  -0.000  1.00  0.00     0.168 HD
ENDROOT
BRANCH   1   9
HETATM    9  N   UNL     1       2.134   0.303   0.000  1.00  0.00    -0.334 N 
HETATM   10  H   UNL     1       2.057   1.313   0.000  1.00  0.00     0.168 HD
BRANCH   9  11
HETATM   11  C   UNL     1       3.425  -0.180   0.000  1.00  0.00     0.353 C 
HETATM   12  O   UNL     1       3.815  -1.338  -0.000  1.00  0.00    -0.283 OA
ENDBRANCH   9  11
ENDBRANCH   1   9
TORSDOF 2
