REMARK  4 active torsions:
REMARK  status: ('A' for Active; 'I' for Inactive)
REMARK    1  A    between atoms: O_2  and  C_3 
REMARK    2  A    between atoms: C_3  and  C_5 
REMARK    3  A    between atoms: C_11  and  N_12 
REMARK       I    between atoms: N_12  and  C_13 
REMARK    4  A    between atoms: C_13  and  S_15 
ROOT
HETATM    1  C   UNL     1       0.278  -1.234  -0.309  1.00  0.00     0.066 A 
HETATM    2  C   UNL     1      -0.166  -2.146  -1.272  1.00  0.00     0.020 A 
HETATM    3  C   UNL     1      -1.180  -3.044  -0.945  1.00  0.00     0.008 A 
HETATM    4  C   UNL     1      -1.742  -3.053   0.342  1.00  0.00    -0.060 A 
HETATM    5  C   UNL     1      -2.934  -3.914   0.631  1.00  0.00     0.048 C 
HETATM    6  C   UNL     1      -1.275  -2.152   1.310  1.00  0.00     0.037 A 
HETATM    7  C   UNL     1      -0.276  -1.229   0.988  1.00  0.00     0.052 A 
ENDROOT
BRANCH   7   8
HETATM    8  N   UNL     1      -0.147  -0.100   1.849  1.00  0.00    -0.317 N 
HETATM    9  C   UNL     1      -0.794   1.085   1.522  1.00  0.00     0.283 C 
HETATM   10  O   UNL     1      -0.772   2.058   2.280  1.00  0.00    -0.260 OA
HETATM   11  H   UNL     1       0.768   0.088   2.249  1.00  0.00     0.169 HD
BRANCH   9  12
HETATM   12  S   UNL     1      -1.350   1.227  -0.135  1.00  0.00    -0.073 SA
HETATM   13  C   UNL     1      -2.992   1.822  -0.281  1.00  0.00     0.100 C 
ENDBRANCH   9  12
ENDBRANCH   7   8
BRANCH   1  14
HETATM   14  C   UNL     1       1.404  -0.267  -0.672  1.00  0.00     0.295 C 
HETATM   15  O   UNL     1       1.294   0.602  -1.523  1.00  0.00    -0.259 OA
BRANCH  14  16
HETATM   16  O   UNL     1       2.598  -0.500   0.000  1.00  0.00    -0.322 OA
HETATM   17  C   UNL     1       2.598  -1.500   0.000  1.00  0.00     0.213 C 
ENDBRANCH  14  16
ENDBRANCH   1  14
TORSDOF 4
