REMARK  3 active torsions:
REMARK  status: ('A' for Active; 'I' for Inactive)
REMARK    1  A    between atoms: N_4  and  C_5 
REMARK    2  A    between atoms: C_8  and  C_9 
REMARK    3  A    between atoms: C_12  and  C_13 
ROOT
HETATM    1  C   UNL     1      -3.462  -1.162   0.231  1.00  0.00     0.054 C 
HETATM    2  C   UNL     1      -3.736  -2.414  -0.359  1.00  0.00     0.032 C 
HETATM    3  C   UNL     1      -5.032  -2.903  -0.374  1.00  0.00     0.018 C 
HETATM    4  C   UNL     1      -6.030  -2.175   0.264  1.00  0.00     0.019 C 
HETATM    5  C   UNL     1      -5.686  -1.010   0.998  1.00  0.00     0.018 C 
HETATM    6  C   UNL     1      -4.420  -0.451   0.923  1.00  0.00     0.032 C 
ENDROOT
BRANCH   4   7
HETATM    7  C   UNL     1      -7.428  -2.395  -0.105  1.00  0.00     0.202 C 
HETATM    8  O   UNL     1      -8.247  -1.453   0.441  1.00  0.00    -0.273 OA
HETATM    9  C   UNL     1      -8.845  -0.975  -0.689  1.00  0.00     0.174 C 
HETATM   10  N   UNL     1      -8.798  -1.835  -1.680  1.00  0.00    -0.126 NA
HETATM   11  N   UNL     1      -7.886  -2.808  -1.275  1.00  0.00    -0.121 NA
BRANCH   9  12
HETATM   12  C   UNL     1      -9.233   0.490  -0.767  1.00  0.00     0.069 A 
HETATM   13  C   UNL     1      -9.666   1.083   0.533  1.00  0.00     0.018 A 
HETATM   14  C   UNL     1      -8.293   1.501   0.000  1.00  0.00    -0.006 A 
HETATM   15  C   UNL     1      -8.189   2.496   0.000  1.00  0.00     0.011 C 
ENDBRANCH   9  12
ENDBRANCH   4   7
BRANCH   1  16
HETATM   16  N   UNL     1      -2.143  -0.724   0.246  1.00  0.00    -0.247 N 
HETATM   17  C   UNL     1      -1.125  -1.535   0.589  1.00  0.00     0.142 C 
HETATM   18  C   UNL     1       0.000  -1.000   0.000  1.00  0.00     0.065 C 
HETATM   19  C   UNL     1       0.809  -1.588   0.000  1.00  0.00     0.073 C 
HETATM   20  N   UNL     1      -0.354   0.238  -0.480  1.00  0.00    -0.163 NA
HETATM   21  N   UNL     1      -1.666   0.423  -0.268  1.00  0.00     0.009 NA
ENDBRANCH   1  16
TORSDOF 3
