REMARK  3 active torsions:
REMARK  status: ('A' for Active; 'I' for Inactive)
REMARK    1  A    between atoms: C_3  and  O_4 
REMARK    2  A    between atoms: C_3  and  C_5 
REMARK    3  A    between atoms: C_5  and  S_7 
ROOT
HETATM    1  C   UNL     1       2.833   2.224  -0.662  1.00  0.00     0.015 C 
HETATM    2  C   UNL     1       1.769   2.502  -0.181  1.00  0.00    -0.077 C 
HETATM    3  C   UNL     1       0.463   2.849   0.408  1.00  0.00     0.276 C 
ENDROOT
BRANCH   3   4
HETATM    4  O   UNL     1       0.349   4.272   0.436  1.00  0.00    -0.375 OA
HETATM    5  H   UNL     1       0.154   4.541  -0.483  1.00  0.00     0.211 HD
ENDBRANCH   3   4
BRANCH   3   6
HETATM    6  C   UNL     1      -0.689   2.250  -0.413  1.00  0.00     0.226 C 
HETATM    7  O   UNL     1      -1.160   2.818  -1.394  1.00  0.00    -0.282 OA
BRANCH   6   8
HETATM    8  S   UNL     1      -1.390   0.732   0.155  1.00  0.00    -0.093 SA
HETATM    9  C   UNL     1       0.072  -0.321   0.186  1.00  0.00     0.099 C 
ENDBRANCH   6   8
ENDBRANCH   3   6
TORSDOF 3
