REMARK  3 active torsions:
REMARK  status: ('A' for Active; 'I' for Inactive)
REMARK    1  A    between atoms: C_6  and  C_7 
REMARK    2  A    between atoms: C_7  and  O_8 
REMARK    3  A    between atoms: O_8  and  C_9 
ROOT
HETATM    1  C   UNL     1       2.000   0.000   0.000  1.00  0.00     0.018 A 
HETATM    2  C   UNL     1       1.000   0.000   0.000  1.00  0.00    -0.018 A 
HETATM    3  C   UNL     1       1.000  -1.000   0.000  1.00  0.00     0.018 A 
HETATM    4  C   UNL     1       0.000   0.000   0.000  1.00  0.00     0.104 A 
HETATM    5  N   UNL     1      -0.240   1.252  -0.750  1.00  0.00    -0.317 N 
HETATM    6  C   UNL     1       1.000   1.000   0.000  1.00  0.00     0.082 A 
HETATM    7  H   UNL     1      -0.893   1.889  -0.293  1.00  0.00     0.122 HD
ENDROOT
BRANCH   6   8
HETATM    8  C   UNL     1       2.009   2.369  -0.366  1.00  0.00     0.198 C 
BRANCH   8   9
HETATM    9  O   UNL     1       3.191   1.998  -1.093  1.00  0.00    -0.327 OA
BRANCH   9  10
HETATM   10  C   UNL     1       4.337   2.166  -0.380  1.00  0.00     0.398 C 
HETATM   11  O   UNL     1       4.736   3.229   0.099  1.00  0.00    -0.276 OA
ENDBRANCH   9  10
ENDBRANCH   8   9
ENDBRANCH   6   8
TORSDOF 3
