REMARK  2 active torsions:
REMARK  status: ('A' for Active; 'I' for Inactive)
REMARK    1  A    between atoms: N_4  and  C_5 
REMARK    2  A    between atoms: C_5  and  N_6 
ROOT
HETATM    1  N   UNL     1       3.228   2.171   0.071  1.00  0.00    -0.252 N 
HETATM    2  N   UNL     1       2.462   3.269   0.204  1.00  0.00     0.007 NA
HETATM    3  N   UNL     1       3.252   4.330   0.203  1.00  0.00    -0.158 NA
HETATM    4  C   UNL     1       4.542   3.896   0.105  1.00  0.00     0.102 A 
HETATM    5  C   UNL     1       5.742   4.618   0.067  1.00  0.00     0.035 A 
HETATM    6  C   UNL     1       6.945   3.906  -0.021  1.00  0.00     0.002 A 
HETATM    7  C   UNL     1       6.946   2.509  -0.066  1.00  0.00     0.002 A 
HETATM    8  C   UNL     1       5.754   1.773  -0.041  1.00  0.00     0.033 A 
HETATM    9  C   UNL     1       4.565   2.508   0.042  1.00  0.00     0.081 A 
ENDROOT
BRANCH   1  10
HETATM   10  C   UNL     1       2.688   0.828  -0.044  1.00  0.00     0.292 C 
BRANCH  10  11
HETATM   11  N   UNL     1       1.249   0.621  -0.032  1.00  0.00    -0.264 N 
HETATM   12  C   UNL     1       0.186   1.469  -0.109  1.00  0.00     0.138 A 
HETATM   13  C   UNL     1      -0.920   0.656  -0.013  1.00  0.00     0.065 A 
HETATM   14  C   UNL     1      -2.347   1.026   0.020  1.00  0.00     0.073 C 
HETATM   15  N   UNL     1      -0.510  -0.645   0.053  1.00  0.00    -0.164 NA
HETATM   16  N   UNL     1       0.816  -0.661   0.029  1.00  0.00     0.006 NA
ENDBRANCH  10  11
ENDBRANCH   1  10
TORSDOF 2
