REMARK  5 active torsions:
REMARK  status: ('A' for Active; 'I' for Inactive)
REMARK    1  A    between atoms: O_2  and  C_3 
REMARK    2  A    between atoms: C_9  and  C_10 
REMARK    3  A    between atoms: C_10  and  O_11 
REMARK    4  A    between atoms: C_10  and  C_12 
REMARK    5  A    between atoms: C_12  and  S_13 
ROOT
HETATM    1  C   UNL     1      -0.436  -1.009  -0.024  1.00  0.00     0.077 A 
HETATM    2  C   UNL     1      -1.467  -1.658  -0.746  1.00  0.00     0.040 A 
HETATM    3  C   UNL     1      -2.783  -1.207  -0.676  1.00  0.00     0.045 A 
HETATM    4  C   UNL     1      -3.077  -0.100   0.101  1.00  0.00     0.117 A 
HETATM    5  F   UNL     1      -4.344   0.320   0.198  1.00  0.00    -0.206 F 
HETATM    6  C   UNL     1      -2.073   0.577   0.790  1.00  0.00     0.055 A 
HETATM    7  C   UNL     1      -0.733   0.146   0.725  1.00  0.00     0.007 A 
ENDROOT
BRANCH   7   8
HETATM    8  C   UNL     1       0.327   0.904   1.496  1.00  0.00     0.163 C 
BRANCH   8   9
HETATM    9  O   UNL     1      -0.014   0.861   2.891  1.00  0.00    -0.390 OA
HETATM   10  H   UNL     1      -0.299  -0.050   3.082  1.00  0.00     0.210 HD
ENDBRANCH   8   9
BRANCH   8  11
HETATM   11  C   UNL     1       0.473   2.382   1.087  1.00  0.00     0.110 C 
BRANCH  11  12
HETATM   12  S   UNL     1       1.160   2.668  -0.584  1.00  0.00    -0.171 SA
HETATM   13  C   UNL     1       2.810   1.967  -0.345  1.00  0.00     0.089 C 
ENDBRANCH  11  12
ENDBRANCH   8  11
ENDBRANCH   7   8
BRANCH   1  14
HETATM   14  O   UNL     1       0.866  -1.500   0.000  1.00  0.00    -0.355 OA
HETATM   15  C   UNL     1       0.866  -2.500   0.000  1.00  0.00     0.210 C 
ENDBRANCH   1  14
TORSDOF 5
