REMARK  17 active torsions:
REMARK  status: ('A' for Active; 'I' for Inactive)
REMARK    1  A    between atoms: C_2  and  C_4 
REMARK    2  A    between atoms: C_4  and  C_5 
REMARK    3  A    between atoms: C_5  and  C_7 
REMARK    4  A    between atoms: C_7  and  O_8 
REMARK    5  A    between atoms: C_7  and  C_9 
REMARK    6  A    between atoms: C_9  and  C_11 
REMARK    7  A    between atoms: C_11  and  C_12 
REMARK    8  A    between atoms: C_11  and  C_30 
REMARK    9  A    between atoms: C_12  and  C_13 
REMARK   10  A    between atoms: C_13  and  O_14 
REMARK   11  A    between atoms: O_14  and  C_15 
REMARK   12  A    between atoms: C_15  and  N_17 
REMARK   13  A    between atoms: N_17  and  C_18 
REMARK   14  A    between atoms: C_18  and  C_19 
REMARK   15  A    between atoms: C_19  and  N_20 
REMARK   16  A    between atoms: C_30  and  C_32 
REMARK   17  A    between atoms: C_37  and  O_38 
ROOT
HETATM    1  C   UNL     1       1.492   0.603   0.423  1.00  0.00     0.135 C 
ENDROOT
BRANCH   1   2
HETATM    2  C   UNL     1       1.640  -0.913   0.576  1.00  0.00     0.174 C 
HETATM    3  O   UNL     1       0.989  -1.499   1.453  1.00  0.00    -0.294 OA
BRANCH   2   4
HETATM    4  C   UNL     1       2.649  -1.721  -0.245  1.00  0.00     0.258 C 
BRANCH   4   5
HETATM    5  C   UNL     1       2.268  -3.191  -0.367  1.00  0.00     0.169 C 
HETATM    6  O   UNL     1       1.489  -3.535  -1.264  1.00  0.00    -0.294 OA
BRANCH   5   7
HETATM    7  C   UNL     1       2.908  -4.169   0.582  1.00  0.00     0.159 C 
BRANCH   7   8
HETATM    8  C   UNL     1       2.782  -5.616   0.172  1.00  0.00     0.130 C 
HETATM    9  C   UNL     1       1.418  -6.200  -0.055  1.00  0.00     0.091 C 
HETATM   10  O   UNL     1       3.776  -6.338   0.066  1.00  0.00    -0.298 OA
ENDBRANCH   7   8
ENDBRANCH   5   7
ENDBRANCH   4   5
BRANCH   4  11
HETATM   11  O   UNL     1       2.839  -1.315  -1.597  1.00  0.00    -0.380 OA
HETATM   12  H   UNL     1       2.155  -1.753  -2.133  1.00  0.00     0.211 HD
ENDBRANCH   4  11
ENDBRANCH   2   4
ENDBRANCH   1   2
BRANCH   1  13
HETATM   13  C   UNL     1       2.380   1.365  -0.591  1.00  0.00     0.047 C 
BRANCH  13  14
HETATM   14  C   UNL     1       3.182   2.523   0.024  1.00  0.00     0.179 C 
BRANCH  14  15
HETATM   15  O   UNL     1       3.950   2.140   1.190  1.00  0.00    -0.327 OA
BRANCH  15  16
HETATM   16  C   UNL     1       4.806   1.095   1.258  1.00  0.00     0.210 C 
HETATM   17  S   UNL     1       5.072   0.500   2.785  1.00  0.00    -0.033 SA
BRANCH  16  18
HETATM   18  N   UNL     1       5.323   0.624   0.080  1.00  0.00    -0.360 N 
HETATM   19  H   UNL     1       5.187   1.188  -0.748  1.00  0.00     0.162 HD
BRANCH  18  20
HETATM   20  C   UNL     1       6.008  -0.661  -0.112  1.00  0.00     0.143 C 
BRANCH  20  21
HETATM   21  C   UNL     1       7.522  -0.564  -0.062  1.00  0.00     0.149 C 
BRANCH  21  22
HETATM   22  N   UNL     1       8.317  -1.789  -0.097  1.00  0.00    -0.348 N 
HETATM   23  C   UNL     1       7.917  -3.114  -0.238  1.00  0.00     0.045 A 
HETATM   24  C   UNL     1       9.036  -3.908   0.060  1.00  0.00    -0.007 A 
HETATM   25  C   UNL     1       6.705  -3.733  -0.594  1.00  0.00     0.030 A 
HETATM   26  C   UNL     1      10.134  -3.042   0.245  1.00  0.00     0.038 C 
HETATM   27  C   UNL     1       8.930  -5.314   0.089  1.00  0.00     0.014 A 
HETATM   28  C   UNL     1       9.696  -1.750   0.075  1.00  0.00     0.009 C 
HETATM   29  C   UNL     1      10.523  -0.513   0.086  1.00  0.00     0.068 C 
HETATM   30  C   UNL     1       7.723  -5.920  -0.239  1.00  0.00     0.001 A 
HETATM   31  C   UNL     1       6.641  -5.134  -0.607  1.00  0.00     0.002 A 
ENDBRANCH  21  22
ENDBRANCH  20  21
ENDBRANCH  18  20
ENDBRANCH  16  18
ENDBRANCH  15  16
ENDBRANCH  14  15
ENDBRANCH  13  14
ENDBRANCH   1  13
BRANCH   1  32
HETATM   32  C   UNL     1       0.078   1.165   0.283  1.00  0.00     0.173 C 
HETATM   33  O   UNL     1      -0.078   2.388   0.420  1.00  0.00    -0.291 OA
BRANCH  32  34
HETATM   34  C   UNL     1      -1.157   0.372  -0.028  1.00  0.00     0.044 A 
HETATM   35  C   UNL     1      -2.415   0.959   0.221  1.00  0.00     0.079 A 
HETATM   36  C   UNL     1      -3.601   0.259  -0.001  1.00  0.00     0.037 A 
HETATM   37  C   UNL     1      -3.558  -1.045  -0.483  1.00  0.00     0.003 A 
HETATM   38  C   UNL     1      -2.330  -1.627  -0.779  1.00  0.00     0.001 A 
HETATM   39  C   UNL     1      -1.141  -0.913  -0.582  1.00  0.00     0.018 A 
BRANCH  35  40
HETATM   40  O   UNL     1      -2.575   2.241   0.681  1.00  0.00    -0.360 OA
HETATM   41  H   UNL     1      -1.691   2.672   0.691  1.00  0.00     0.217 HD
ENDBRANCH  35  40
ENDBRANCH  32  34
ENDBRANCH   1  32
TORSDOF 17
