REMARK  2 active torsions:
REMARK  status: ('A' for Active; 'I' for Inactive)
REMARK    1  A    between atoms: S_2  and  C_3 
REMARK    2  A    between atoms: C_3  and  C_5 
ROOT
HETATM    1  C   UNL     1       0.865  -0.607  -0.054  1.00  0.00     0.223 C 
HETATM    2  C   UNL     1       2.301  -1.012   0.288  1.00  0.00     0.058 C 
HETATM    3  C   UNL     1       0.164  -1.710  -0.869  1.00  0.00     0.052 C 
HETATM    4  C   UNL     1      -1.177  -1.942  -0.181  1.00  0.00     0.033 C 
HETATM    5  C   UNL     1      -1.323  -0.789   0.788  1.00  0.00     0.271 C 
HETATM    6  N   UNL     1       0.056  -0.528   1.191  1.00  0.00     0.101 N 
HETATM    7  H   UNL     1       0.140   0.399   1.614  1.00  0.00     0.317 HD
ENDROOT
BRANCH   1   8
HETATM    8  C   UNL     1       0.882   0.751  -0.817  1.00  0.00     0.224 C 
HETATM    9  O   UNL     1       0.728   0.877  -2.024  1.00  0.00    -0.283 OA
BRANCH   8  10
HETATM   10  S   UNL     1       1.248   2.177   0.174  1.00  0.00    -0.094 SA
HETATM   11  C   UNL     1       2.963   2.404  -0.352  1.00  0.00     0.099 C 
ENDBRANCH   8  10
ENDBRANCH   1   8
TORSDOF 2
