REMARK  6 active torsions:
REMARK  status: ('A' for Active; 'I' for Inactive)
REMARK    1  A    between atoms: S_2  and  C_3 
REMARK    2  A    between atoms: C_3  and  C_4 
REMARK    3  A    between atoms: C_3  and  C_6 
REMARK    4  A    between atoms: C_4  and  O_5 
REMARK    5  A    between atoms: C_6  and  O_7 
REMARK    6  A    between atoms: O_7  and  N_8 
ROOT
HETATM    1  N   UNL     1       1.704   0.031  -0.537  1.00  0.00    -0.138 NA
HETATM    2  C   UNL     1       1.204  -1.114  -0.188  1.00  0.00     0.072 C 
HETATM    3  C   UNL     1       2.103  -2.295   0.101  1.00  0.00     0.067 C 
HETATM    4  C   UNL     1       1.165  -3.509   0.075  1.00  0.00     0.045 C 
HETATM    5  C   UNL     1      -0.196  -2.903   0.213  1.00  0.00    -0.045 A 
HETATM    6  C   UNL     1      -1.394  -3.565   0.455  1.00  0.00     0.008 A 
HETATM    7  C   UNL     1      -2.569  -2.812   0.558  1.00  0.00     0.001 A 
HETATM    8  C   UNL     1      -2.536  -1.421   0.427  1.00  0.00     0.001 A 
HETATM    9  C   UNL     1      -1.332  -0.768   0.170  1.00  0.00     0.014 A 
HETATM   10  C   UNL     1      -0.183  -1.523   0.038  1.00  0.00    -0.003 A 
ENDROOT
BRANCH   1  11
HETATM   11  O   UNL     1       0.713   0.962  -0.888  1.00  0.00    -0.255 OA
BRANCH  11  12
HETATM   12  C   UNL     1       1.007   2.209  -0.261  1.00  0.00     0.221 C 
BRANCH  12  13
HETATM   13  C   UNL     1       0.050   3.329  -0.712  1.00  0.00     0.096 C 
BRANCH  13  14
HETATM   14  S   UNL     1       0.299   4.838   0.327  1.00  0.00    -0.164 SA
HETATM   15  C   UNL     1       1.951   5.322  -0.220  1.00  0.00     0.090 C 
ENDBRANCH  13  14
BRANCH  13  16
HETATM   16  C   UNL     1      -1.441   2.963  -0.612  1.00  0.00     0.181 C 
BRANCH  16  17
HETATM   17  O   UNL     1      -1.828   2.075  -1.657  1.00  0.00    -0.400 OA
HETATM   18  H   UNL     1      -2.776   1.890  -1.546  1.00  0.00     0.209 HD
ENDBRANCH  16  17
ENDBRANCH  13  16
ENDBRANCH  12  13
ENDBRANCH  11  12
ENDBRANCH   1  11
TORSDOF 6
