REMARK  4 active torsions:
REMARK  status: ('A' for Active; 'I' for Inactive)
REMARK    1  A    between atoms: S_2  and  C_3 
REMARK    2  A    between atoms: C_3  and  N_5 
REMARK    3  A    between atoms: N_5  and  C_6 
REMARK    4  A    between atoms: C_9  and  N_10 
ROOT
HETATM    1  N   UNL     1      -1.093   5.104   0.227  1.00  0.00    -0.234 NA
HETATM    2  C   UNL     1      -2.138   5.605   0.048  1.00  0.00     0.163 C 
HETATM    3  S   UNL     1      -3.532   6.349  -0.169  1.00  0.00    -0.055 SA
ENDROOT
BRANCH   1   4
HETATM    4  C   UNL     1      -0.998   3.704   0.107  1.00  0.00     0.058 A 
HETATM    5  C   UNL     1      -2.067   2.796   0.060  1.00  0.00     0.034 A 
HETATM    6  C   UNL     1      -1.841   1.416  -0.049  1.00  0.00     0.032 A 
HETATM    7  C   UNL     1      -0.542   0.892  -0.100  1.00  0.00     0.033 A 
HETATM    8  C   UNL     1       0.523   1.784  -0.045  1.00  0.00     0.032 A 
HETATM    9  C   UNL     1       0.294   3.166   0.058  1.00  0.00     0.034 A 
BRANCH   7  10
HETATM   10  N   UNL     1      -0.432  -0.504  -0.277  1.00  0.00    -0.342 N 
HETATM   11  H   UNL     1      -1.300  -0.968  -0.511  1.00  0.00     0.167 HD
BRANCH  10  12
HETATM   12  C   UNL     1       0.639  -1.368  -0.273  1.00  0.00     0.138 C 
HETATM   13  S   UNL     1       2.220  -1.143   0.198  1.00  0.00    -0.053 SA
BRANCH  12  14
HETATM   14  S   UNL     1       0.126  -2.926  -0.925  1.00  0.00    -0.105 SA
HETATM   15  C   UNL     1      -1.029  -3.491   0.341  1.00  0.00     0.098 C 
ENDBRANCH  12  14
ENDBRANCH  10  12
ENDBRANCH   7  10
ENDBRANCH   1   4
TORSDOF 4
