REMARK  7 active torsions:
REMARK  status: ('A' for Active; 'I' for Inactive)
REMARK    1  A    between atoms: N_1  and  C_2 
REMARK    2  A    between atoms: N_3  and  C_4 
REMARK    3  A    between atoms: C_4  and  C_5 
REMARK    4  A    between atoms: C_5  and  O_6 
REMARK    5  A    between atoms: C_5  and  C_7 
REMARK    6  A    between atoms: C_7  and  O_8 
REMARK    7  A    between atoms: O_8  and  C_9 
ROOT
HETATM    1  C   UNL     1       3.456   0.106  -0.224  1.00  0.00     0.160 C 
ENDROOT
BRANCH   1   2
HETATM    2  C   UNL     1       4.639  -0.831   0.058  1.00  0.00     0.154 C 
BRANCH   2   3
HETATM    3  N   UNL     1       5.892  -0.126  -0.157  1.00  0.00    -0.383 N 
HETATM    4  C   UNL     1       7.116  -0.706  -0.026  1.00  0.00     0.192 C 
HETATM    5  H   UNL     1       5.839   0.843   0.163  1.00  0.00     0.160 HD
BRANCH   4   6
HETATM    6  N   UNL     1       7.409  -1.954  -0.053  1.00  0.00    -0.296 NA
HETATM    7  H   UNL     1       6.568  -2.510  -0.207  1.00  0.00     0.187 HD
ENDBRANCH   4   6
ENDBRANCH   2   3
ENDBRANCH   1   2
BRANCH   1   8
HETATM    8  O   UNL     1       3.532   1.238   0.659  1.00  0.00    -0.392 OA
HETATM    9  H   UNL     1       2.744   1.785   0.470  1.00  0.00     0.210 HD
ENDBRANCH   1   8
BRANCH   1  10
HETATM   10  C   UNL     1       2.132  -0.629  -0.003  1.00  0.00     0.211 C 
BRANCH  10  11
HETATM   11  O   UNL     1       1.058   0.272  -0.318  1.00  0.00    -0.326 OA
BRANCH  11  12
HETATM   12  C   UNL     1      -0.181  -0.266  -0.234  1.00  0.00     0.398 C 
HETATM   13  O   UNL     1      -1.206   0.364  -0.438  1.00  0.00    -0.276 OA
ENDBRANCH  11  12
ENDBRANCH  10  11
ENDBRANCH   1  10
TORSDOF 7
