REMARK  2 active torsions:
REMARK  status: ('A' for Active; 'I' for Inactive)
REMARK    1  A    between atoms: C_7  and  O_8 
REMARK    2  A    between atoms: O_8  and  C_9 
ROOT
HETATM    1  C   UNL     1       1.705   0.933  -1.108  1.00  0.00     0.018 C 
HETATM    2  C   UNL     1       1.000   0.000   0.000  1.00  0.00    -0.008 A 
HETATM    3  C   UNL     1       2.263  -0.425   0.885  1.00  0.00     0.018 C 
HETATM    4  C   UNL     1       0.500  -0.866   0.000  1.00  0.00     0.055 A 
HETATM    5  C   UNL     1       0.000   0.000   0.000  1.00  0.00     0.178 A 
HETATM    6  N   UNL     1      -0.500   0.866   0.000  1.00  0.00    -0.041 N 
HETATM    7  C   UNL     1      -1.000   0.000   0.000  1.00  0.00     0.400 A 
HETATM    8  H   UNL     1      -0.469   1.629  -0.741  1.00  0.00     0.280 HD
HETATM    9  H   UNL     1      -0.409   1.542   0.825  1.00  0.00     0.280 HD
ENDROOT
BRANCH   7  10
HETATM   10  O   UNL     1      -1.820  -0.254   1.391  1.00  0.00    -0.302 OA
BRANCH  10  11
HETATM   11  C   UNL     1      -3.155  -0.090   1.320  1.00  0.00     0.399 C 
HETATM   12  O   UNL     1      -3.818   0.424   0.403  1.00  0.00    -0.276 OA
ENDBRANCH  10  11
ENDBRANCH   7  10
TORSDOF 2
