REMARK  14 active torsions:
REMARK  status: ('A' for Active; 'I' for Inactive)
REMARK    1  A    between atoms: C_2  and  C_4 
REMARK    2  A    between atoms: C_4  and  C_5 
REMARK    3  A    between atoms: C_5  and  C_7 
REMARK    4  A    between atoms: C_7  and  O_8 
REMARK    5  A    between atoms: C_7  and  C_9 
REMARK    6  A    between atoms: C_9  and  C_11 
REMARK    7  A    between atoms: C_11  and  C_12 
REMARK    8  A    between atoms: C_11  and  C_15 
REMARK    9  A    between atoms: C_12  and  C_13 
REMARK   10  A    between atoms: C_13  and  O_14 
REMARK   11  A    between atoms: C_15  and  C_17 
REMARK   12  A    between atoms: C_22  and  O_23 
REMARK   13  A    between atoms: O_23  and  C_24 
REMARK   14  A    between atoms: C_24  and  C_26 
ROOT
HETATM    1  C   UNL     1       2.686  -3.900  -0.467  1.00  0.00     0.173 C 
HETATM    2  O   UNL     1       1.765  -4.167  -1.243  1.00  0.00    -0.291 OA
ENDROOT
BRANCH   1   3
HETATM    3  C   UNL     1       3.394  -5.021   0.312  1.00  0.00     0.135 C 
BRANCH   3   4
HETATM    4  C   UNL     1       4.786  -5.301  -0.239  1.00  0.00     0.174 C 
HETATM    5  O   UNL     1       5.033  -5.286  -1.449  1.00  0.00    -0.294 OA
BRANCH   4   6
HETATM    6  C   UNL     1       5.898  -5.689   0.731  1.00  0.00     0.258 C 
BRANCH   6   7
HETATM    7  C   UNL     1       6.891  -4.551   0.926  1.00  0.00     0.169 C 
HETATM    8  O   UNL     1       7.141  -4.120   2.056  1.00  0.00    -0.294 OA
BRANCH   7   9
HETATM    9  C   UNL     1       7.511  -3.951  -0.316  1.00  0.00     0.159 C 
BRANCH   9  10
HETATM   10  C   UNL     1       8.564  -2.913  -0.045  1.00  0.00     0.130 C 
HETATM   11  C   UNL     1       9.950  -3.399   0.268  1.00  0.00     0.091 C 
HETATM   12  O   UNL     1       8.285  -1.712  -0.040  1.00  0.00    -0.298 OA
ENDBRANCH   9  10
ENDBRANCH   7   9
ENDBRANCH   6   7
BRANCH   6  13
HETATM   13  O   UNL     1       6.577  -6.839   0.231  1.00  0.00    -0.380 OA
HETATM   14  H   UNL     1       6.606  -6.765  -0.745  1.00  0.00     0.211 HD
ENDBRANCH   6  13
ENDBRANCH   4   6
ENDBRANCH   3   4
BRANCH   3  15
HETATM   15  C   UNL     1       2.659  -6.376   0.162  1.00  0.00     0.046 C 
BRANCH  15  16
HETATM   16  C   UNL     1       1.256  -6.495   0.750  1.00  0.00     0.165 C 
BRANCH  16  17
HETATM   17  O   UNL     1       0.551  -5.274   0.788  1.00  0.00    -0.401 OA
HETATM   18  H   UNL     1       0.494  -4.928  -0.129  1.00  0.00     0.209 HD
ENDBRANCH  16  17
ENDBRANCH  15  16
ENDBRANCH   3  15
ENDBRANCH   1   3
BRANCH   1  19
HETATM   19  C   UNL     1       3.139  -2.469  -0.362  1.00  0.00     0.044 C 
HETATM   20  C   UNL     1       2.398  -1.438  -0.962  1.00  0.00     0.093 C 
HETATM   21  C   UNL     1       2.979  -0.192  -1.234  1.00  0.00     0.038 C 
HETATM   22  C   UNL     1       4.242   0.104  -0.742  1.00  0.00     0.003 C 
HETATM   23  C   UNL     1       4.911  -0.842   0.027  1.00  0.00     0.001 C 
HETATM   24  C   UNL     1       4.363  -2.118   0.216  1.00  0.00     0.018 C 
BRANCH  20  25
HETATM   25  O   UNL     1       1.041  -1.563  -1.262  1.00  0.00    -0.276 OA
BRANCH  25  26
HETATM   26  C   UNL     1       0.341  -1.117  -0.147  1.00  0.00     0.297 C 
HETATM   27  O   UNL     1       0.147  -1.786   0.862  1.00  0.00    -0.262 OA
BRANCH  26  28
HETATM   28  C   UNL     1      -0.112   0.342  -0.312  1.00  0.00     0.322 C 
HETATM   29  C   UNL     1       0.591   1.259   0.682  1.00  0.00     0.085 C 
HETATM   30  C   UNL     1      -0.307   2.475   0.728  1.00  0.00     0.200 C 
HETATM   31  F   UNL     1       0.151   3.377  -0.185  1.00  0.00    -0.248 F 
HETATM   32  C   UNL     1      -1.678   1.970   0.288  1.00  0.00     0.307 C 
HETATM   33  N   UNL     1      -1.547   0.521   0.035  1.00  0.00     0.100 N 
HETATM   34  H   UNL     1      -1.723   0.011   0.907  1.00  0.00     0.317 HD
ENDBRANCH  26  28
ENDBRANCH  25  26
ENDBRANCH  20  25
ENDBRANCH   1  19
TORSDOF 14
