REMARK  2 active torsions:
REMARK  status: ('A' for Active; 'I' for Inactive)
REMARK    1  A    between atoms: N_2  and  C_3 
REMARK    2  A    between atoms: C_6  and  S_7 
ROOT
HETATM    1  C   UNL     1       1.404   1.190  -0.147  1.00  0.00     0.008 A 
HETATM    2  C   UNL     1       2.565   0.438  -0.003  1.00  0.00     0.025 A 
HETATM    3  C   UNL     1       2.512  -0.950   0.194  1.00  0.00     0.021 A 
HETATM    4  C   UNL     1       1.293  -1.644   0.206  1.00  0.00     0.006 A 
HETATM    5  C   UNL     1       0.112  -0.908   0.001  1.00  0.00    -0.043 A 
HETATM    6  C   UNL     1      -1.273  -1.503  -0.050  1.00  0.00     0.049 C 
HETATM    7  C   UNL     1       0.192   0.489  -0.191  1.00  0.00     0.031 A 
ENDROOT
BRANCH   1   8
HETATM    8  N   UNL     1       1.384   2.570  -0.368  1.00  0.00    -0.297 NA
HETATM    9  C   UNL     1       2.522   3.375   0.037  1.00  0.00     0.113 C 
HETATM   10  H   UNL     1       0.496   2.981  -0.092  1.00  0.00     0.127 HD
ENDBRANCH   1   8
BRANCH   4  11
HETATM   11  S   UNL     1       1.224  -3.412   0.533  1.00  0.00    -0.134 SA
HETATM   12  C   UNL     1       2.866  -4.005   0.051  1.00  0.00     0.095 C 
ENDBRANCH   4  11
TORSDOF 2
