REMARK  6 active torsions:
REMARK  status: ('A' for Active; 'I' for Inactive)
REMARK    1  A    between atoms: O_2  and  C_3 
REMARK    2  A    between atoms: C_6  and  C_7 
REMARK    3  A    between atoms: C_7  and  C_8 
REMARK    4  A    between atoms: C_8  and  N_9 
REMARK       I    between atoms: N_9  and  C_10 
REMARK    5  A    between atoms: C_10  and  S_12 
REMARK    6  A    between atoms: C_15  and  O_16 
ROOT
HETATM    1  C   UNL     1      -0.830  -1.092   0.456  1.00  0.00     0.101 C 
HETATM    2  C   UNL     1      -1.780  -0.260  -0.132  1.00  0.00     0.040 C 
HETATM    3  C   UNL     1      -1.545   1.116  -0.241  1.00  0.00     0.010 C 
HETATM    4  C   UNL     1      -0.397   1.701   0.312  1.00  0.00    -0.054 C 
HETATM    5  C   UNL     1       0.543   0.875   0.918  1.00  0.00     0.046 C 
HETATM    6  C   UNL     1       0.366  -0.513   0.899  1.00  0.00     0.102 C 
ENDROOT
BRANCH   4   7
HETATM    7  C   UNL     1      -0.124   3.175   0.149  1.00  0.00     0.058 C 
BRANCH   7   8
HETATM    8  C   UNL     1      -1.196   4.051   0.798  1.00  0.00     0.128 C 
BRANCH   8   9
HETATM    9  N   UNL     1      -1.372   5.313   0.111  1.00  0.00    -0.352 N 
HETATM   10  C   UNL     1      -2.401   5.720  -0.696  1.00  0.00     0.279 C 
HETATM   11  O   UNL     1      -2.507   6.885  -1.045  1.00  0.00    -0.260 OA
HETATM   12  H   UNL     1      -0.721   6.064   0.314  1.00  0.00     0.163 HD
BRANCH  10  13
HETATM   13  S   UNL     1      -3.543   4.506  -1.217  1.00  0.00    -0.074 SA
HETATM   14  C   UNL     1      -4.846   4.852  -0.018  1.00  0.00     0.100 C 
ENDBRANCH  10  13
ENDBRANCH   8   9
ENDBRANCH   7   8
ENDBRANCH   4   7
BRANCH   6  15
HETATM   15  O   UNL     1       1.436  -1.318   1.222  1.00  0.00    -0.353 OA
HETATM   16  C   UNL     1       2.472  -1.091   0.253  1.00  0.00     0.210 C 
ENDBRANCH   6  15
BRANCH   1  17
HETATM   17  O   UNL     1      -0.952  -2.451   0.575  1.00  0.00    -0.353 OA
HETATM   18  C   UNL     1      -2.258  -2.987   0.399  1.00  0.00     0.210 C 
ENDBRANCH   1  17
TORSDOF 6
