REMARK  2 active torsions:
REMARK  status: ('A' for Active; 'I' for Inactive)
REMARK    1  A    between atoms: C_11  and  O_13 
REMARK    2  A    between atoms: C_11  and  C_14 
ROOT
HETATM    1  C   UNL     1       1.134   1.500   0.000  1.00  0.00     0.166 A 
HETATM    2  S   UNL     1       1.134   0.500   0.000  1.00  0.00    -0.251 SA
HETATM    3  C   UNL     1       2.000   0.000   0.000  1.00  0.00     0.025 A 
HETATM    4  C   UNL     1       2.500   0.866   0.000  1.00  0.00     0.070 A 
HETATM    5  C   UNL     1       2.866  -0.500   0.000  1.00  0.00     0.031 C 
HETATM    6  C   UNL     1       3.666  -1.813   0.488  1.00  0.00    -0.004 C 
HETATM    7  C   UNL     1       5.010  -2.402   0.345  1.00  0.00    -0.002 C 
HETATM    8  C   UNL     1       6.109  -1.677  -0.057  1.00  0.00    -0.001 C 
HETATM    9  C   UNL     1       5.812  -0.381  -0.342  1.00  0.00    -0.002 C 
HETATM   10  C   UNL     1       4.440   0.047  -0.361  1.00  0.00    -0.004 C 
HETATM   11  C   UNL     1       1.500  -0.866   0.000  1.00  0.00     0.079 A 
HETATM   12  C   UNL     1       1.500  -1.866   0.000  1.00  0.00     0.058 C 
ENDROOT
BRANCH  11  13
HETATM   13  O   UNL     1       1.448  -0.964  -1.854  1.00  0.00    -0.381 OA
HETATM   14  H   UNL     1       2.312  -1.362  -2.075  1.00  0.00     0.211 HD
ENDBRANCH  11  13
BRANCH  11  15
HETATM   15  C   UNL     1      -0.497  -1.147   0.105  1.00  0.00    -0.019 A 
HETATM   16  C   UNL     1      -1.491  -0.080  -0.124  1.00  0.00     0.011 A 
HETATM   17  C   UNL     1      -2.872  -0.273  -0.073  1.00  0.00     0.001 A 
HETATM   18  C   UNL     1      -3.384  -1.518   0.107  1.00  0.00     0.000 A 
HETATM   19  C   UNL     1      -2.520  -2.599   0.258  1.00  0.00     0.001 A 
HETATM   20  C   UNL     1      -1.099  -2.421   0.280  1.00  0.00     0.011 A 
ENDBRANCH  11  15
TORSDOF 2
