REMARK  6 active torsions:
REMARK  status: ('A' for Active; 'I' for Inactive)
REMARK    1  A    between atoms: S_2  and  C_3 
REMARK    2  A    between atoms: C_3  and  C_4 
REMARK    3  A    between atoms: C_3  and  C_6 
REMARK    4  A    between atoms: C_4  and  O_5 
REMARK       I    between atoms: N_10  and  C_11 
REMARK    5  A    between atoms: C_11  and  O_13 
REMARK    6  A    between atoms: O_13  and  C_14 
ROOT
HETATM    1  C   UNL     1       1.947   0.498  -0.398  1.00  0.00     0.084 C 
HETATM    2  C   UNL     1       2.079  -1.013  -0.107  1.00  0.00     0.023 C 
HETATM    3  C   UNL     1       1.397  -1.681  -1.321  1.00  0.00     0.017 C 
HETATM    4  C   UNL     1       0.655  -0.540  -2.026  1.00  0.00     0.101 C 
HETATM    5  N   UNL     1       0.601   0.487  -0.991  1.00  0.00    -0.223 NA
HETATM    6  C   UNL     1      -0.517   0.463  -0.147  1.00  0.00     0.341 C 
HETATM    7  O   UNL     1      -0.503   0.857   1.008  1.00  0.00    -0.245 OA
ENDROOT
BRANCH   1   8
HETATM    8  C   UNL     1       2.356   1.444   0.762  1.00  0.00     0.088 C 
BRANCH   8   9
HETATM    9  S   UNL     1       4.216   1.844   0.741  1.00  0.00    -0.165 SA
HETATM   10  C   UNL     1       4.997   0.240   0.489  1.00  0.00     0.090 C 
ENDBRANCH   8   9
BRANCH   8  11
HETATM   11  C   UNL     1       1.708   2.849   0.699  1.00  0.00     0.180 C 
BRANCH  11  12
HETATM   12  O   UNL     1       2.221   3.715   1.723  1.00  0.00    -0.400 OA
HETATM   13  H   UNL     1       3.192   3.614   1.691  1.00  0.00     0.209 HD
ENDBRANCH  11  12
ENDBRANCH   8  11
ENDBRANCH   1   8
BRANCH   6  14
HETATM   14  O   UNL     1      -1.573  -0.166  -0.726  1.00  0.00    -0.298 OA
BRANCH  14  15
HETATM   15  C   UNL     1      -2.693  -0.638   0.065  1.00  0.00     0.061 C 
HETATM   16  C   UNL     1      -3.413  -1.642  -0.851  1.00  0.00     0.046 C 
HETATM   17  C   UNL     1      -2.245  -1.392   1.325  1.00  0.00     0.046 C 
HETATM   18  C   UNL     1      -3.632   0.523   0.388  1.00  0.00     0.046 C 
ENDBRANCH  14  15
ENDBRANCH   6  14
TORSDOF 6
