REMARK  3 active torsions:
REMARK  status: ('A' for Active; 'I' for Inactive)
REMARK    1  A    between atoms: C_2  and  C_3 
REMARK    2  A    between atoms: C_7  and  O_8 
REMARK    3  A    between atoms: O_8  and  C_9 
ROOT
HETATM    1  C   UNL     1       0.698  -0.471   0.316  1.00  0.00     0.249 C 
HETATM    2  N   UNL     1       0.997  -1.714  -0.422  1.00  0.00     0.090 N 
HETATM    3  C   UNL     1      -0.114  -2.629  -0.126  1.00  0.00     0.272 C 
HETATM    4  C   UNL     1      -1.329  -1.734   0.075  1.00  0.00     0.065 C 
HETATM    5  C   UNL     1      -0.787  -0.312  -0.090  1.00  0.00     0.166 C 
HETATM    6  H   UNL     1       1.886  -2.120  -0.134  1.00  0.00     0.316 HD
ENDROOT
BRANCH   5   7
HETATM    7  O   UNL     1      -1.487   0.643   0.700  1.00  0.00    -0.321 OA
BRANCH   7   8
HETATM    8  C   UNL     1      -2.752   0.916   0.291  1.00  0.00     0.398 C 
HETATM    9  O   UNL     1      -3.418   1.841   0.712  1.00  0.00    -0.276 OA
ENDBRANCH   7   8
ENDBRANCH   5   7
BRANCH   1  10
HETATM   10  C   UNL     1       1.588   0.809   0.000  1.00  0.00     0.034 C 
HETATM   11  C   UNL     1       2.582   0.705   0.000  1.00  0.00     0.007 C 
ENDBRANCH   1  10
TORSDOF 3
