REMARK  2 active torsions:
REMARK  status: ('A' for Active; 'I' for Inactive)
REMARK    1  A    between atoms: C_6  and  O_7 
REMARK    2  A    between atoms: O_7  and  C_8 
ROOT
HETATM    1  C   UNL     1       2.235  -2.661  -0.142  1.00  0.00     0.195 C 
HETATM    2  N   UNL     1       1.212  -2.096  -0.014  1.00  0.00    -0.398 NA
HETATM    3  C   UNL     1      -0.010  -1.451   0.122  1.00  0.00     0.114 A 
HETATM    4  C   UNL     1      -1.148  -2.240   0.317  1.00  0.00     0.048 A 
HETATM    5  C   UNL     1      -2.395  -1.630   0.456  1.00  0.00     0.040 A 
HETATM    6  C   UNL     1      -2.507  -0.246   0.320  1.00  0.00     0.077 A 
HETATM    7  C   UNL     1      -1.358   0.533   0.161  1.00  0.00     0.047 A 
HETATM    8  C   UNL     1      -0.088  -0.053   0.072  1.00  0.00    -0.019 A 
HETATM    9  C   UNL     1       1.116   0.838   0.048  1.00  0.00     0.052 C 
ENDROOT
BRANCH   6  10
HETATM   10  O   UNL     1      -3.669   0.471   0.436  1.00  0.00    -0.305 OA
BRANCH  10  11
HETATM   11  C   UNL     1      -4.893   0.031  -0.056  1.00  0.00     0.147 C 
HETATM   12  C   UNL     1      -6.080   0.797   0.388  1.00  0.00     0.205 C 
HETATM   13  C   UNL     1      -7.268   0.230   0.115  1.00  0.00     0.057 C 
HETATM   14  O   UNL     1      -5.831   1.896   0.951  1.00  0.00    -0.286 OA
HETATM   15  C   UNL     1      -7.389  -1.087  -0.570  1.00  0.00     0.206 C 
HETATM   16  O   UNL     1      -6.272  -1.450  -1.400  1.00  0.00    -0.356 OA
HETATM   17  C   UNL     1      -5.067  -0.953  -0.963  1.00  0.00     0.176 C 
ENDBRANCH  10  11
ENDBRANCH   6  10
TORSDOF 2
