REMARK  2 active torsions:
REMARK  status: ('A' for Active; 'I' for Inactive)
REMARK    1  A    between atoms: C_2  and  N_3 
REMARK    2  A    between atoms: N_3  and  C_4 
ROOT
HETATM    1  C   UNL     1       1.076  -0.447   0.186  1.00  0.00     0.114 C 
HETATM    2  C   UNL     1       0.871  -1.892  -0.340  1.00  0.00     0.193 C 
HETATM    3  O   UNL     1      -0.424  -2.093  -0.918  1.00  0.00    -0.382 OA
HETATM    4  C   UNL     1      -1.466  -1.769  -0.004  1.00  0.00     0.245 C 
HETATM    5  C   UNL     1      -1.405  -0.298   0.358  1.00  0.00     0.152 C 
HETATM    6  O   UNL     1      -2.336   0.278   0.920  1.00  0.00    -0.296 OA
HETATM    7  C   UNL     1      -0.151   0.433  -0.048  1.00  0.00     0.107 C 
ENDROOT
BRANCH   1   8
HETATM    8  N   UNL     1       2.265   0.197  -0.376  1.00  0.00    -0.361 N 
HETATM    9  H   UNL     1       2.188   1.119  -0.788  1.00  0.00     0.162 HD
BRANCH   8  10
HETATM   10  C   UNL     1       3.522  -0.324  -0.206  1.00  0.00     0.348 C 
HETATM   11  O   UNL     1       3.776  -1.376   0.366  1.00  0.00    -0.284 OA
ENDBRANCH   8  10
ENDBRANCH   1   8
TORSDOF 2
