REMARK  14 active torsions:
REMARK  status: ('A' for Active; 'I' for Inactive)
REMARK    1  A    between atoms: C_2  and  C_3 
REMARK    2  A    between atoms: C_10  and  O_11 
REMARK    3  A    between atoms: O_11  and  C_12 
REMARK    4  A    between atoms: C_12  and  C_13 
REMARK    5  A    between atoms: C_13  and  C_14 
REMARK    6  A    between atoms: C_14  and  C_15 
REMARK    7  A    between atoms: C_14  and  C_24 
REMARK    8  A    between atoms: C_15  and  C_17 
REMARK    9  A    between atoms: C_22  and  O_23 
REMARK   10  A    between atoms: C_24  and  C_26 
REMARK   11  A    between atoms: C_26  and  O_27 
REMARK   12  A    between atoms: C_26  and  C_28 
REMARK   13  A    between atoms: C_28  and  C_30 
REMARK   14  A    between atoms: C_30  and  C_31 
ROOT
HETATM    1  C   UNL     1      -3.220  -2.227   0.158  1.00  0.00     0.135 C 
ENDROOT
BRANCH   1   2
HETATM    2  C   UNL     1      -2.064  -2.876   0.972  1.00  0.00     0.047 C 
BRANCH   2   3
HETATM    3  C   UNL     1      -0.833  -3.354   0.191  1.00  0.00     0.176 C 
BRANCH   3   4
HETATM    4  O   UNL     1      -0.617  -2.634  -1.025  1.00  0.00    -0.351 OA
BRANCH   4   5
HETATM    5  C   UNL     1       0.420  -1.750  -0.906  1.00  0.00     0.069 A 
HETATM    6  C   UNL     1       1.736  -2.185  -0.655  1.00  0.00     0.039 A 
HETATM    7  C   UNL     1       2.739  -1.258  -0.371  1.00  0.00     0.033 A 
HETATM    8  C   UNL     1       2.382   0.074  -0.377  1.00  0.00     0.042 A 
HETATM    9  N   UNL     1       3.154   1.154   0.014  1.00  0.00    -0.326 N 
HETATM   10  C   UNL     1       1.105   0.511  -0.725  1.00  0.00    -0.016 A 
HETATM   11  C   UNL     1       2.423   2.338  -0.019  1.00  0.00     0.230 A 
HETATM   12  H   UNL     1       4.088   1.104   0.390  1.00  0.00     0.169 HD
HETATM   13  C   UNL     1       1.043   2.016  -0.635  1.00  0.00     0.113 A 
HETATM   14  O   UNL     1       2.836   3.424   0.352  1.00  0.00    -0.272 OA
HETATM   15  C   UNL     1       0.108  -0.398  -1.018  1.00  0.00     0.047 A 
BRANCH  13  16
HETATM   16  C   UNL     1      -0.153   2.493   0.184  1.00  0.00     0.014 C 
HETATM   17  C   UNL     1      -0.276   4.006   0.261  1.00  0.00     0.006 C 
ENDBRANCH  13  16
ENDBRANCH   4   5
ENDBRANCH   3   4
ENDBRANCH   2   3
ENDBRANCH   1   2
BRANCH   1  18
HETATM   18  C   UNL     1      -3.566  -0.826   0.682  1.00  0.00     0.173 C 
HETATM   19  O   UNL     1      -2.700  -0.114   1.186  1.00  0.00    -0.291 OA
BRANCH  18  20
HETATM   20  C   UNL     1      -4.886  -0.157   0.409  1.00  0.00     0.044 A 
HETATM   21  C   UNL     1      -4.871   1.216   0.098  1.00  0.00     0.079 A 
HETATM   22  C   UNL     1      -6.044   1.906  -0.213  1.00  0.00     0.037 A 
HETATM   23  C   UNL     1      -7.266   1.240  -0.201  1.00  0.00     0.003 A 
HETATM   24  C   UNL     1      -7.313  -0.101   0.156  1.00  0.00     0.001 A 
HETATM   25  C   UNL     1      -6.133  -0.786   0.480  1.00  0.00     0.018 A 
BRANCH  21  26
HETATM   26  O   UNL     1      -3.723   1.966   0.103  1.00  0.00    -0.360 OA
HETATM   27  H   UNL     1      -3.051   1.463   0.617  1.00  0.00     0.217 HD
ENDBRANCH  21  26
ENDBRANCH  18  20
ENDBRANCH   1  18
BRANCH   1  28
HETATM   28  C   UNL     1      -4.367  -3.180   0.229  1.00  0.00     0.174 C 
HETATM   29  O   UNL     1      -4.844  -3.489   1.328  1.00  0.00    -0.294 OA
BRANCH  28  30
HETATM   30  C   UNL     1      -4.976  -3.677  -1.084  1.00  0.00     0.258 C 
BRANCH  30  31
HETATM   31  O   UNL     1      -4.025  -4.102  -2.040  1.00  0.00    -0.380 OA
HETATM   32  H   UNL     1      -3.450  -4.772  -1.610  1.00  0.00     0.211 HD
ENDBRANCH  30  31
BRANCH  30  33
HETATM   33  C   UNL     1      -6.036  -4.741  -0.816  1.00  0.00     0.169 C 
HETATM   34  O   UNL     1      -7.164  -4.656  -1.315  1.00  0.00    -0.294 OA
BRANCH  33  35
HETATM   35  C   UNL     1      -5.718  -5.869   0.131  1.00  0.00     0.159 C 
BRANCH  35  36
HETATM   36  C   UNL     1      -4.330  -6.500   0.000  1.00  0.00     0.130 C 
HETATM   37  C   UNL     1      -4.330  -7.500   0.000  1.00  0.00     0.091 C 
HETATM   38  O   UNL     1      -3.354  -5.761  -0.179  1.00  0.00    -0.298 OA
ENDBRANCH  35  36
ENDBRANCH  33  35
ENDBRANCH  30  33
ENDBRANCH  28  30
ENDBRANCH   1  28
TORSDOF 14
