REMARK  4 active torsions:
REMARK  status: ('A' for Active; 'I' for Inactive)
REMARK    1  A    between atoms: C_2  and  C_3 
REMARK    2  A    between atoms: C_3  and  C_4 
REMARK    3  A    between atoms: C_4  and  C_5 
REMARK    4  A    between atoms: C_4  and  N_11 
ROOT
HETATM    1  C   UNL     1      -2.001   1.907  -0.502  1.00  0.00     0.143 C 
ENDROOT
BRANCH   1   2
HETATM    2  C   UNL     1      -2.096   3.283   0.220  1.00  0.00     0.058 C 
BRANCH   2   3
HETATM    3  C   UNL     1      -0.945   4.234  -0.026  1.00  0.00    -0.035 C 
HETATM    4  C   UNL     1       0.137   4.301   0.756  1.00  0.00     0.007 C 
ENDBRANCH   2   3
ENDBRANCH   1   2
BRANCH   1   5
HETATM    5  C   UNL     1      -3.252   1.040  -0.326  1.00  0.00    -0.016 A 
HETATM    6  C   UNL     1      -4.531   1.604  -0.345  1.00  0.00     0.125 A 
HETATM    7  N   UNL     1      -5.686   0.923  -0.168  1.00  0.00    -0.273 NA
HETATM    8  C   UNL     1      -5.587  -0.406   0.032  1.00  0.00     0.116 A 
HETATM    9  C   UNL     1      -4.385  -1.085   0.017  1.00  0.00     0.020 A 
HETATM   10  C   UNL     1      -3.213  -0.357  -0.183  1.00  0.00     0.012 A 
ENDBRANCH   1   5
BRANCH   1  11
HETATM   11  N   UNL     1      -0.766   1.232  -0.068  1.00  0.00    -0.274 N 
HETATM   12  N   UNL     1      -0.643   0.736   1.181  1.00  0.00     0.005 NA
HETATM   13  N   UNL     1       0.625   0.395   1.356  1.00  0.00    -0.164 NA
HETATM   14  C   UNL     1       1.314   0.709   0.218  1.00  0.00     0.065 A 
HETATM   15  C   UNL     1       0.435   1.197  -0.725  1.00  0.00     0.137 A 
HETATM   16  C   UNL     1       2.781   0.561   0.167  1.00  0.00     0.073 C 
ENDBRANCH   1  11
TORSDOF 4
