REMARK  1 active torsions:
REMARK  status: ('A' for Active; 'I' for Inactive)
REMARK    1  A    between atoms: N_6  and  C_7 
ROOT
HETATM    1  C   UNL     1       0.321  -2.333   0.008  1.00  0.00     0.012 C 
HETATM    2  C   UNL     1      -0.575  -1.199  -0.471  1.00  0.00     0.013 C 
HETATM    3  C   UNL     1      -1.815  -1.035   0.411  1.00  0.00     0.109 C 
HETATM    4  C   UNL     1      -2.181   0.416   0.239  1.00  0.00     0.226 C 
HETATM    5  O   UNL     1      -3.250   0.909   0.565  1.00  0.00    -0.273 OA
HETATM    6  N   UNL     1      -1.089   1.076  -0.304  1.00  0.00    -0.291 N 
HETATM    7  C   UNL     1       0.052   0.203  -0.508  1.00  0.00     0.095 C 
HETATM    8  C   UNL     1       1.140   0.459   0.535  1.00  0.00     0.033 C 
ENDROOT
BRANCH   6   9
HETATM    9  C   UNL     1      -1.075   2.421  -0.578  1.00  0.00     0.358 C 
HETATM   10  O   UNL     1      -0.122   3.037  -1.042  1.00  0.00    -0.283 OA
ENDBRANCH   6   9
TORSDOF 1
