REMARK  3 active torsions:
REMARK  status: ('A' for Active; 'I' for Inactive)
REMARK    1  A    between atoms: C_2  and  O_3 
REMARK    2  A    between atoms: O_3  and  C_4 
REMARK    3  A    between atoms: C_4  and  C_5 
ROOT
HETATM    1  C   UNL     1       1.000   0.000   0.000  1.00  0.00     0.088 A 
HETATM    2  C   UNL     1       0.500  -0.866   0.000  1.00  0.00     0.092 A 
HETATM    3  C   UNL     1       0.000   0.000   0.000  1.00  0.00     0.250 A 
HETATM    4  F   UNL     1      -0.500   0.866   0.000  1.00  0.00    -0.206 F 
HETATM    5  F   UNL     1      -1.000   0.000   0.000  1.00  0.00    -0.206 F 
ENDROOT
BRANCH   1   6
HETATM    6  C   UNL     1       1.789   0.537   1.178  1.00  0.00     0.189 C 
BRANCH   6   7
HETATM    7  O   UNL     1       1.758   1.983   1.179  1.00  0.00    -0.328 OA
BRANCH   7   8
HETATM    8  C   UNL     1       2.721   2.611   0.464  1.00  0.00     0.398 C 
HETATM    9  O   UNL     1       3.629   2.083  -0.157  1.00  0.00    -0.276 OA
ENDBRANCH   7   8
ENDBRANCH   6   7
ENDBRANCH   1   6
TORSDOF 3
