REMARK  0 active torsions:
REMARK  status: ('A' for Active; 'I' for Inactive)
ROOT
HETATM    1  C   UNL     1      -3.366  -2.366   0.000  1.00  0.00     0.227 A 
HETATM    2  S   UNL     1      -2.366  -2.366   0.000  1.00  0.00    -0.293 SA
HETATM    3  C   UNL     1      -1.866  -1.500   0.000  1.00  0.00    -0.020 A 
HETATM    4  C   UNL     1      -1.866  -0.500   0.000  1.00  0.00     0.056 A 
HETATM    5  C   UNL     1      -3.585  -0.465   0.489  1.00  0.00     0.024 C 
HETATM    6  C   UNL     1      -0.866  -1.500   0.000  1.00  0.00     0.047 A 
HETATM    7  O   UNL     1      -0.866  -2.500   0.000  1.00  0.00     0.000 OA
HETATM    8  C   UNL     1       0.134  -1.500   0.000  1.00  0.00     0.070 A 
HETATM    9  N   UNL     1       1.134  -1.500   0.000  1.00  0.00    -0.156 N 
HETATM   10  C   UNL     1      -0.866  -0.500   0.000  1.00  0.00     0.059 A 
HETATM   11  C   UNL     1      -0.394   0.415  -1.379  1.00  0.00    -0.005 C 
HETATM   12  C   UNL     1       0.034   1.752  -1.360  1.00  0.00    -0.002 C 
HETATM   13  C   UNL     1       0.294   2.413  -0.138  1.00  0.00    -0.001 C 
HETATM   14  C   UNL     1       0.226   1.800   1.128  1.00  0.00    -0.002 C 
HETATM   15  C   UNL     1      -0.224   0.474   1.257  1.00  0.00    -0.005 C 
HETATM   16  H   UNL     1      -0.803  -3.073  -0.806  1.00  0.00     0.000 HD
ENDROOT
TORSDOF 0
