REMARK  15 active torsions:
REMARK  status: ('A' for Active; 'I' for Inactive)
REMARK    1  A    between atoms: C_2  and  C_4 
REMARK    2  A    between atoms: C_4  and  C_5 
REMARK    3  A    between atoms: C_5  and  C_7 
REMARK    4  A    between atoms: C_7  and  O_8 
REMARK    5  A    between atoms: C_7  and  C_21 
REMARK    6  A    between atoms: O_8  and  C_9 
REMARK    7  A    between atoms: C_9  and  N_11 
REMARK    8  A    between atoms: N_11  and  C_12 
REMARK    9  A    between atoms: C_21  and  C_23 
REMARK   10  A    between atoms: C_23  and  C_24 
REMARK   11  A    between atoms: C_23  and  C_27 
REMARK   12  A    between atoms: C_24  and  C_25 
REMARK   13  A    between atoms: C_25  and  O_26 
REMARK   14  A    between atoms: C_27  and  C_29 
REMARK   15  A    between atoms: C_34  and  O_35 
ROOT
HETATM    1  C   UNL     1       3.507  -1.162  -0.877  1.00  0.00     0.270 C 
ENDROOT
BRANCH   1   2
HETATM    2  C   UNL     1       3.066  -2.234   0.120  1.00  0.00     0.170 C 
HETATM    3  O   UNL     1       1.892  -2.377   0.466  1.00  0.00    -0.294 OA
BRANCH   2   4
HETATM    4  C   UNL     1       4.085  -3.242   0.573  1.00  0.00     0.159 C 
BRANCH   4   5
HETATM    5  C   UNL     1       4.190  -4.410  -0.360  1.00  0.00     0.130 C 
HETATM    6  C   UNL     1       3.150  -5.493  -0.259  1.00  0.00     0.091 C 
HETATM    7  O   UNL     1       5.119  -4.484  -1.165  1.00  0.00    -0.298 OA
ENDBRANCH   4   5
ENDBRANCH   2   4
ENDBRANCH   1   2
BRANCH   1   8
HETATM    8  O   UNL     1       4.670  -0.493  -0.378  1.00  0.00    -0.310 OA
BRANCH   8   9
HETATM    9  C   UNL     1       5.551   0.173  -1.169  1.00  0.00     0.193 C 
HETATM   10  S   UNL     1       5.305   0.530  -2.777  1.00  0.00    -0.039 SA
BRANCH   9  11
HETATM   11  N   UNL     1       6.692   0.605  -0.519  1.00  0.00    -0.226 NA
HETATM   12  H   UNL     1       7.184   1.202  -1.184  1.00  0.00     0.136 HD
BRANCH  11  13
HETATM   13  C   UNL     1       7.577  -0.430  -0.080  1.00  0.00     0.071 C 
HETATM   14  C   UNL     1       7.384  -1.214   1.058  1.00  0.00     0.036 C 
HETATM   15  C   UNL     1       8.128  -2.390   1.221  1.00  0.00     0.027 C 
HETATM   16 BR   UNL     1       6.201  -0.700   2.454  1.00  0.00    -0.049 Br
HETATM   17  C   UNL     1       9.094  -2.763   0.273  1.00  0.00    -0.058 C 
HETATM   18  C   UNL     1       9.390  -1.890  -0.777  1.00  0.00     0.051 C 
HETATM   19  C   UNL     1       9.814  -4.075   0.361  1.00  0.00     0.048 C 
HETATM   20  C   UNL     1       8.640  -0.736  -0.938  1.00  0.00     0.139 C 
HETATM   21  F   UNL     1       8.889   0.063  -1.987  1.00  0.00    -0.204 F 
ENDBRANCH  11  13
ENDBRANCH   9  11
ENDBRANCH   8   9
ENDBRANCH   1   8
BRANCH   1  22
HETATM   22  C   UNL     1       2.330  -0.274  -1.316  1.00  0.00     0.175 C 
HETATM   23  O   UNL     1       1.677  -0.602  -2.318  1.00  0.00    -0.294 OA
BRANCH  22  24
HETATM   24  C   UNL     1       1.869   0.933  -0.504  1.00  0.00     0.135 C 
BRANCH  24  25
HETATM   25  C   UNL     1       2.955   1.944  -0.111  1.00  0.00     0.046 C 
BRANCH  25  26
HETATM   26  C   UNL     1       2.422   3.338   0.237  1.00  0.00     0.165 C 
BRANCH  26  27
HETATM   27  O   UNL     1       1.055   3.313   0.634  1.00  0.00    -0.401 OA
HETATM   28  H   UNL     1       1.062   3.120   1.597  1.00  0.00     0.209 HD
ENDBRANCH  26  27
ENDBRANCH  25  26
ENDBRANCH  24  25
BRANCH  24  29
HETATM   29  C   UNL     1       1.064   0.538   0.727  1.00  0.00     0.173 C 
HETATM   30  O   UNL     1       1.551   0.550   1.858  1.00  0.00    -0.291 OA
BRANCH  29  31
HETATM   31  C   UNL     1      -0.344   0.109   0.560  1.00  0.00     0.044 A 
HETATM   32  C   UNL     1      -1.273   0.789  -0.231  1.00  0.00     0.079 A 
HETATM   33  C   UNL     1      -2.531   0.228  -0.456  1.00  0.00     0.037 A 
HETATM   34  C   UNL     1      -2.886  -0.976   0.157  1.00  0.00     0.003 A 
HETATM   35  C   UNL     1      -1.993  -1.610   1.017  1.00  0.00     0.001 A 
HETATM   36  C   UNL     1      -0.729  -1.063   1.225  1.00  0.00     0.018 A 
BRANCH  32  37
HETATM   37  O   UNL     1      -1.062   2.020  -0.784  1.00  0.00    -0.360 OA
HETATM   38  H   UNL     1      -0.399   2.524  -0.258  1.00  0.00     0.217 HD
ENDBRANCH  32  37
ENDBRANCH  29  31
ENDBRANCH  24  29
ENDBRANCH  22  24
ENDBRANCH   1  22
TORSDOF 15
