REMARK  6 active torsions:
REMARK  status: ('A' for Active; 'I' for Inactive)
REMARK    1  A    between atoms: O_2  and  C_3 
REMARK    2  A    between atoms: C_3  and  C_5 
REMARK    3  A    between atoms: C_5  and  N_6 
REMARK    4  A    between atoms: C_5  and  C_17 
REMARK       I    between atoms: N_6  and  C_7 
REMARK    5  A    between atoms: C_7  and  O_9 
REMARK    6  A    between atoms: O_9  and  C_10 
ROOT
HETATM    1  C   UNL     1       0.115   1.360   0.511  1.00  0.00     0.220 C 
ENDROOT
BRANCH   1   2
HETATM    2  C   UNL     1       1.509   2.064   0.631  1.00  0.00     0.286 C 
HETATM    3  O   UNL     1       1.612   3.170   1.159  1.00  0.00    -0.263 OA
BRANCH   2   4
HETATM    4  O   UNL     1       2.598   1.500   0.000  1.00  0.00    -0.325 OA
HETATM    5  C   UNL     1       2.598   0.500   0.000  1.00  0.00     0.213 C 
ENDBRANCH   2   4
ENDBRANCH   1   2
BRANCH   1   6
HETATM    6  N   UNL     1      -0.906   2.047   1.300  1.00  0.00    -0.319 N 
HETATM    7  C   UNL     1      -2.241   1.762   1.217  1.00  0.00     0.367 C 
HETATM    8  O   UNL     1      -3.063   2.220   2.003  1.00  0.00    -0.238 OA
HETATM    9  H   UNL     1      -0.632   2.793   1.930  1.00  0.00     0.166 HD
BRANCH   7  10
HETATM   10  O   UNL     1      -2.485   0.863   0.219  1.00  0.00    -0.256 OA
BRANCH  10  11
HETATM   11  C   UNL     1      -3.759   0.298   0.088  1.00  0.00     0.148 C 
HETATM   12  C   UNL     1      -4.954   1.138  -0.165  1.00  0.00     0.187 C 
HETATM   13  C   UNL     1      -6.265   0.429  -0.386  1.00  0.00     0.112 C 
HETATM   14  O   UNL     1      -4.853   2.353  -0.323  1.00  0.00    -0.290 OA
HETATM   15  C   UNL     1      -6.208  -1.001   0.114  1.00  0.00     0.182 C 
HETATM   16  O   UNL     1      -5.043  -1.709  -0.313  1.00  0.00    -0.360 OA
HETATM   17  C   UNL     1      -3.887  -1.026  -0.065  1.00  0.00     0.175 C 
ENDBRANCH  10  11
ENDBRANCH   7  10
ENDBRANCH   1   6
BRANCH   1  18
HETATM   18  C   UNL     1       0.141  -0.124   0.877  1.00  0.00    -0.026 A 
HETATM   19  C   UNL     1      -0.112  -1.084  -0.124  1.00  0.00     0.013 A 
HETATM   20  C   UNL     1       0.081  -2.438   0.136  1.00  0.00     0.043 A 
HETATM   21  C   UNL     1       0.517  -2.835   1.393  1.00  0.00     0.116 A 
HETATM   22  C   UNL     1       0.730  -1.908   2.408  1.00  0.00     0.043 A 
HETATM   23  F   UNL     1       0.755  -4.132   1.625  1.00  0.00    -0.206 F 
HETATM   24  C   UNL     1       0.529  -0.550   2.159  1.00  0.00     0.013 A 
ENDBRANCH   1  18
TORSDOF 6
