REMARK  2 active torsions:
REMARK  status: ('A' for Active; 'I' for Inactive)
REMARK    1  A    between atoms: C_2  and  C_3 
REMARK    2  A    between atoms: C_3  and  S_5 
ROOT
HETATM    1  C   UNL     1       2.254   0.078   0.218  1.00  0.00     0.207 C 
HETATM    2  O   UNL     1       2.176   1.286   0.412  1.00  0.00    -0.281 OA
ENDROOT
BRANCH   1   3
HETATM    3  C   UNL     1       3.588  -0.579   0.129  1.00  0.00     0.052 C 
HETATM    4  C   UNL     1       3.859  -1.885   0.001  1.00  0.00     0.016 C 
ENDBRANCH   1   3
BRANCH   1   5
HETATM    5  S   UNL     1       0.839  -0.935   0.012  1.00  0.00    -0.093 SA
HETATM    6  C   UNL     1      -0.426   0.347  -0.114  1.00  0.00     0.099 C 
ENDBRANCH   1   5
TORSDOF 2
