REMARK  7 active torsions:
REMARK  status: ('A' for Active; 'I' for Inactive)
REMARK    1  A    between atoms: C_7  and  O_8 
REMARK    2  A    between atoms: O_8  and  C_9 
REMARK    3  A    between atoms: C_9  and  C_10 
REMARK    4  A    between atoms: C_9  and  C_12 
REMARK    5  A    between atoms: C_10  and  O_11 
REMARK    6  A    between atoms: C_12  and  N_13 
REMARK    7  A    between atoms: C_15  and  C_16 
ROOT
HETATM    1  N   UNL     1       0.168   1.364  -0.605  1.00  0.00    -0.280 N 
HETATM    2  C   UNL     1      -0.912   2.029  -0.104  1.00  0.00     0.143 A 
HETATM    3  C   UNL     1      -1.965   1.190  -0.395  1.00  0.00     0.121 A 
HETATM    4  N   UNL     1      -1.501   0.109  -1.091  1.00  0.00    -0.156 NA
HETATM    5  N   UNL     1      -0.198   0.258  -1.267  1.00  0.00     0.005 NA
ENDROOT
BRANCH   1   6
HETATM    6  C   UNL     1       1.574   1.654  -0.448  1.00  0.00     0.180 C 
BRANCH   6   7
HETATM    7  C   UNL     1       2.255   0.814   0.641  1.00  0.00     0.172 C 
BRANCH   7   8
HETATM    8  O   UNL     1       3.622   1.242   0.773  1.00  0.00    -0.337 OA
BRANCH   8   9
HETATM    9  C   UNL     1       4.706   0.675   0.165  1.00  0.00     0.137 C 
HETATM   10  C   UNL     1       6.049   1.093   0.694  1.00  0.00     0.186 C 
HETATM   11  O   UNL     1       6.150   1.942   1.579  1.00  0.00    -0.290 OA
HETATM   12  C   UNL     1       7.272   0.521   0.030  1.00  0.00     0.112 C 
HETATM   13  C   UNL     1       6.926  -0.860  -0.472  1.00  0.00     0.182 C 
HETATM   14  O   UNL     1       5.837  -0.804  -1.398  1.00  0.00    -0.360 OA
HETATM   15  C   UNL     1       4.733  -0.166  -0.882  1.00  0.00     0.175 C 
ENDBRANCH   8   9
ENDBRANCH   7   8
BRANCH   7  16
HETATM   16  C   UNL     1       1.997  -0.706   0.552  1.00  0.00     0.198 C 
BRANCH  16  17
HETATM   17  O   UNL     1       2.802  -1.432   1.475  1.00  0.00    -0.398 OA
HETATM   18  H   UNL     1       2.577  -2.373   1.361  1.00  0.00     0.209 HD
ENDBRANCH  16  17
ENDBRANCH   7  16
ENDBRANCH   6   7
ENDBRANCH   1   6
BRANCH   3  19
HETATM   19  C   UNL     1      -3.382   1.380  -0.030  1.00  0.00     0.109 A 
HETATM   20  N   UNL     1      -4.365   0.419  -0.072  1.00  0.00    -0.212 N 
HETATM   21  C   UNL     1      -5.549   1.047   0.297  1.00  0.00     0.151 A 
HETATM   22  N   UNL     1      -4.198  -0.911  -0.349  1.00  0.00    -0.178 NA
HETATM   23  N   UNL     1      -5.355   2.313   0.601  1.00  0.00    -0.239 NA
HETATM   24  C   UNL     1      -6.724   0.259   0.308  1.00  0.00     0.054 A 
HETATM   25  C   UNL     1      -4.010   2.522   0.417  1.00  0.00     0.153 A 
HETATM   26  C   UNL     1      -6.641  -1.049   0.031  1.00  0.00     0.025 A 
HETATM   27  C   UNL     1      -5.299  -1.588  -0.281  1.00  0.00     0.139 A 
ENDBRANCH   3  19
TORSDOF 7
