REMARK  3 active torsions:
REMARK  status: ('A' for Active; 'I' for Inactive)
REMARK    1  A    between atoms: N_4  and  C_5 
REMARK    2  A    between atoms: C_9  and  C_10 
REMARK    3  A    between atoms: C_10  and  O_12 
ROOT
HETATM    1  C   UNL     1      -2.177  -0.830   0.013  1.00  0.00     0.147 A 
HETATM    2  C   UNL     1      -1.873  -2.201  -0.203  1.00  0.00     0.059 A 
HETATM    3  C   UNL     1      -2.815  -3.202   0.000  1.00  0.00    -0.040 A 
HETATM    4  C   UNL     1      -2.815  -4.202   0.000  1.00  0.00     0.049 C 
HETATM    5  C   UNL     1      -4.088  -2.632   0.390  1.00  0.00     0.061 A 
HETATM    6  C   UNL     1      -4.321  -1.272   0.596  1.00  0.00     0.137 A 
HETATM    7  N   UNL     1      -3.375  -0.345   0.403  1.00  0.00    -0.241 NA
ENDROOT
BRANCH   1   8
HETATM    8  N   UNL     1      -1.087   0.067  -0.049  1.00  0.00    -0.230 N 
HETATM    9  C   UNL     1       0.066  -0.152   0.672  1.00  0.00     0.144 C 
HETATM   10  C   UNL     1       1.060  -0.029  -0.268  1.00  0.00     0.065 C 
HETATM   11  C   UNL     1       2.429  -0.565  -0.225  1.00  0.00     0.073 C 
HETATM   12  N   UNL     1       0.539   0.533  -1.398  1.00  0.00    -0.163 NA
HETATM   13  N   UNL     1      -0.772   0.639  -1.238  1.00  0.00     0.011 NA
ENDBRANCH   1   8
BRANCH   5  14
HETATM   14  C   UNL     1      -5.267  -3.485   0.694  1.00  0.00     0.178 C 
HETATM   15  O   UNL     1      -5.796  -3.524   1.797  1.00  0.00    -0.646 OA
BRANCH  14  16
HETATM   16  O   UNL     1      -5.700  -4.180  -0.378  1.00  0.00    -0.773 OA
HETATM   17  H   UNL     1      -5.230  -3.987  -1.215  1.00  0.00     0.167 HD
ENDBRANCH  14  16
ENDBRANCH   5  14
TORSDOF 3
