REMARK  3 active torsions:
REMARK  status: ('A' for Active; 'I' for Inactive)
REMARK    1  A    between atoms: S_2  and  C_3 
REMARK    2  A    between atoms: C_3  and  N_5 
REMARK    3  A    between atoms: N_5  and  C_6 
ROOT
HETATM    1  C   UNL     1       0.500  -0.716   0.037  1.00  0.00     0.131 C 
HETATM    2  C   UNL     1       1.957  -1.137  -0.140  1.00  0.00     0.071 C 
HETATM    3  C   UNL     1      -0.421  -1.938   0.061  1.00  0.00     0.062 C 
HETATM    4  C   UNL     1      -1.755  -1.337  -0.316  1.00  0.00     0.031 C 
HETATM    5  C   UNL     1      -1.359  -0.228  -1.274  1.00  0.00     0.171 C 
HETATM    6  O   UNL     1       0.041   0.022  -1.091  1.00  0.00    -0.361 OA
ENDROOT
BRANCH   1   7
HETATM    7  N   UNL     1       0.322   0.073   1.253  1.00  0.00    -0.344 N 
HETATM    8  H   UNL     1       0.259  -0.481   2.103  1.00  0.00     0.164 HD
BRANCH   7   9
HETATM    9  C   UNL     1       0.550   1.390   1.550  1.00  0.00     0.136 C 
HETATM   10  S   UNL     1       0.557   1.826   3.166  1.00  0.00    -0.053 SA
BRANCH   9  11
HETATM   11  S   UNL     1       0.689   2.578   0.287  1.00  0.00    -0.105 SA
HETATM   12  C   UNL     1       2.402   2.348  -0.212  1.00  0.00     0.098 C 
ENDBRANCH   9  11
ENDBRANCH   7   9
ENDBRANCH   1   7
TORSDOF 3
