REMARK  4 active torsions:
REMARK  status: ('A' for Active; 'I' for Inactive)
REMARK    1  A    between atoms: C_2  and  N_3 
REMARK    2  A    between atoms: N_3  and  C_4 
REMARK    3  A    between atoms: C_4  and  O_6 
REMARK    4  A    between atoms: O_6  and  C_7 
ROOT
HETATM    1  C   UNL     1      -1.623   0.990  -2.396  1.00  0.00     0.196 C 
HETATM    2  S   UNL     1      -1.163   2.390  -3.176  1.00  0.00    -0.039 SA
ENDROOT
BRANCH   1   3
HETATM    3  N   UNL     1      -0.726   0.310  -1.539  1.00  0.00    -0.231 NA
HETATM    4  H   UNL     1       0.158   0.799  -1.619  1.00  0.00     0.133 HD
BRANCH   3   5
HETATM    5  C   UNL     1      -0.995   0.104   0.000  1.00  0.00     0.117 C 
HETATM    6  C   UNL     1      -1.861   0.605   0.000  1.00  0.00     0.064 C 
HETATM    7  O   UNL     1       0.255   0.536   0.550  1.00  0.00    -0.366 OA
HETATM    8  C   UNL     1       1.242  -0.494   0.292  1.00  0.00     0.170 C 
HETATM    9  C   UNL     1       0.509  -1.810   0.174  1.00  0.00     0.031 C 
HETATM   10  C   UNL     1      -0.944  -1.419   0.270  1.00  0.00     0.057 C 
ENDBRANCH   3   5
ENDBRANCH   1   3
BRANCH   1  11
HETATM   11  O   UNL     1      -2.956   0.660  -2.493  1.00  0.00    -0.283 OA
BRANCH  11  12
HETATM   12  C   UNL     1      -3.501  -0.566  -2.035  1.00  0.00     0.145 C 
HETATM   13  C   UNL     1      -4.677  -0.546  -1.110  1.00  0.00     0.186 C 
HETATM   14  C   UNL     1      -5.233  -1.867  -0.653  1.00  0.00     0.112 C 
HETATM   15  O   UNL     1      -5.183   0.513  -0.744  1.00  0.00    -0.290 OA
HETATM   16  C   UNL     1      -4.193  -2.967  -0.779  1.00  0.00     0.182 C 
HETATM   17  O   UNL     1      -3.516  -2.980  -2.036  1.00  0.00    -0.360 OA
HETATM   18  C   UNL     1      -3.091  -1.752  -2.469  1.00  0.00     0.175 C 
ENDBRANCH  11  12
ENDBRANCH   1  11
TORSDOF 4
