REMARK  2 active torsions:
REMARK  status: ('A' for Active; 'I' for Inactive)
REMARK    1  A    between atoms: C_5  and  O_6 
REMARK    2  A    between atoms: O_6  and  C_7 
ROOT
HETATM    1  N   UNL     1      -1.831  -4.348   0.000  1.00  0.00    -0.197 NA
HETATM    2  C   UNL     1      -1.112  -3.436   0.000  1.00  0.00     0.061 C 
HETATM    3  C   UNL     1       0.000  -2.000   0.000  1.00  0.00     0.149 A 
HETATM    4  C   UNL     1       0.000  -1.000   0.000  1.00  0.00     0.037 A 
HETATM    5  C   UNL     1      -1.000  -1.000   0.000  1.00  0.00     0.192 A 
HETATM    6  C   UNL     1       0.000   0.000   0.000  1.00  0.00     0.182 A 
HETATM    7  O   UNL     1       1.345   0.339   0.000  1.00  0.00    -0.390 OA
HETATM    8  C   UNL     1       1.000  -1.000   0.000  1.00  0.00     0.172 A 
ENDROOT
BRANCH   5   9
HETATM    9  O   UNL     1      -2.227   0.310   0.000  1.00  0.00    -0.328 OA
BRANCH   9  10
HETATM   10  C   UNL     1      -3.584   0.200  -0.000  1.00  0.00     0.398 C 
HETATM   11  O   UNL     1      -4.343   1.157  -0.000  1.00  0.00    -0.276 OA
ENDBRANCH   9  10
ENDBRANCH   5   9
TORSDOF 2
