REMARK  2 active torsions:
REMARK  status: ('A' for Active; 'I' for Inactive)
REMARK    1  A    between atoms: C_7  and  O_8 
REMARK    2  A    between atoms: O_8  and  C_9 
ROOT
HETATM    1  O   UNL     1       1.029   0.980  -1.219  1.00  0.00    -0.333 OA
ENDROOT
BRANCH   1   2
HETATM    2  C   UNL     1       2.361   0.735  -0.854  1.00  0.00     0.137 C 
HETATM    3  C   UNL     1       3.265   1.859  -0.482  1.00  0.00     0.186 C 
HETATM    4  O   UNL     1       2.857   3.020  -0.493  1.00  0.00    -0.290 OA
HETATM    5  C   UNL     1       4.649   1.503  -0.008  1.00  0.00     0.112 C 
HETATM    6  C   UNL     1       5.105   0.189  -0.610  1.00  0.00     0.182 C 
HETATM    7  O   UNL     1       4.151  -0.863  -0.474  1.00  0.00    -0.360 OA
HETATM    8  C   UNL     1       2.879  -0.502  -0.819  1.00  0.00     0.175 C 
ENDBRANCH   1   2
BRANCH   1   9
HETATM    9  C   UNL     1       0.000   1.000   0.000  1.00  0.00     0.198 C 
HETATM   10  C   UNL     1      -1.502   1.347  -0.650  1.00  0.00     0.040 C 
HETATM   11  C   UNL     1      -2.609   0.369  -0.257  1.00  0.00     0.003 C 
HETATM   12  C   UNL     1      -2.164  -1.040  -0.603  1.00  0.00     0.007 C 
HETATM   13  C   UNL     1      -0.678  -1.016  -0.938  1.00  0.00     0.081 C 
HETATM   14  C   UNL     1       0.000   0.000   0.000  1.00  0.00     0.156 C 
HETATM   15  O   UNL     1       0.491  -0.555   1.014  1.00  0.00    -0.295 OA
ENDBRANCH   1   9
TORSDOF 2
