REMARK  3 active torsions:
REMARK  status: ('A' for Active; 'I' for Inactive)
REMARK    1  A    between atoms: S_2  and  C_3 
REMARK    2  A    between atoms: C_3  and  C_5 
REMARK    3  A    between atoms: C_5  and  N_6 
ROOT
HETATM    1  C   UNL     1       1.673   2.450   0.452  1.00  0.00     0.403 C 
HETATM    2  C   UNL     1       0.328   1.852   0.547  1.00  0.00     0.103 C 
HETATM    3  N   UNL     1      -0.725   1.369   0.641  1.00  0.00    -0.195 NA
ENDROOT
BRANCH   1   4
HETATM    4  C   UNL     1       2.657   1.450  -0.178  1.00  0.00     0.232 C 
HETATM    5  O   UNL     1       3.364   1.694  -1.152  1.00  0.00    -0.282 OA
BRANCH   4   6
HETATM    6  S   UNL     1       2.900  -0.065   0.708  1.00  0.00    -0.094 SA
HETATM    7  C   UNL     1       1.742  -1.104  -0.214  1.00  0.00     0.099 C 
ENDBRANCH   4   6
ENDBRANCH   1   4
BRANCH   1   8
HETATM    8  N   UNL     1       1.639   3.710  -0.336  1.00  0.00     0.104 N 
HETATM    9  H   UNL     1       2.597   3.997  -0.543  1.00  0.00     0.315 HD
HETATM   10  H   UNL     1       1.207   4.450   0.216  1.00  0.00     0.315 HD
ENDBRANCH   1   8
TORSDOF 3
