REMARK  3 active torsions:
REMARK  status: ('A' for Active; 'I' for Inactive)
REMARK    1  A    between atoms: C_2  and  C_3 
REMARK    2  A    between atoms: C_3  and  C_4 
REMARK    3  A    between atoms: C_4  and  S_6 
ROOT
HETATM    1  C   UNL     1      -1.281   1.900  -0.724  1.00  0.00     0.158 C 
HETATM    2  O   UNL     1      -2.093   1.359  -1.468  1.00  0.00    -0.288 OA
ENDROOT
BRANCH   1   3
HETATM    3  C   UNL     1      -1.423   3.355  -0.259  1.00  0.00     0.114 C 
BRANCH   3   4
HETATM    4  C   UNL     1      -0.256   4.304  -0.098  1.00  0.00    -0.029 C 
HETATM    5  C   UNL     1       1.042   4.148  -0.389  1.00  0.00     0.007 C 
ENDBRANCH   3   4
ENDBRANCH   1   3
BRANCH   1   6
HETATM    6  S   UNL     1       0.000   1.000   0.000  1.00  0.00    -0.232 SA
HETATM    7  C   UNL     1       0.000   0.000   0.000  1.00  0.00     0.270 C 
ENDBRANCH   1   6
TORSDOF 3
