REMARK  5 active torsions:
REMARK  status: ('A' for Active; 'I' for Inactive)
REMARK    1  A    between atoms: C_7  and  O_8 
REMARK    2  A    between atoms: O_8  and  C_9 
REMARK    3  A    between atoms: C_9  and  C_11 
REMARK    4  A    between atoms: C_11  and  O_12 
REMARK    5  A    between atoms: C_11  and  O_13 
ROOT
HETATM    1  O   UNL     1       0.394   1.115  -0.881  1.00  0.00    -0.320 OA
ENDROOT
BRANCH   1   2
HETATM    2  C   UNL     1       0.137  -0.143  -0.369  1.00  0.00     0.138 C 
HETATM    3  C   UNL     1       1.198  -1.125   0.012  1.00  0.00     0.186 C 
HETATM    4  O   UNL     1       2.387  -0.812   0.049  1.00  0.00    -0.290 OA
HETATM    5  C   UNL     1       0.758  -2.501   0.446  1.00  0.00     0.112 C 
HETATM    6  C   UNL     1      -0.605  -2.810  -0.131  1.00  0.00     0.182 C 
HETATM    7  O   UNL     1      -1.559  -1.788   0.170  1.00  0.00    -0.360 OA
HETATM    8  C   UNL     1      -1.131  -0.546  -0.218  1.00  0.00     0.175 C 
ENDBRANCH   1   2
BRANCH   1   9
HETATM    9  C   UNL     1       1.444   1.880  -0.277  1.00  0.00     0.279 C 
HETATM   10 CL   UNL     1       2.857   1.895  -1.379  1.00  0.00    -0.089 Cl
BRANCH   9  11
HETATM   11  C   UNL     1       0.939   3.343  -0.099  1.00  0.00     0.298 C 
BRANCH  11  12
HETATM   12  O   UNL     1       1.934   4.260   0.330  1.00  0.00    -0.368 OA
HETATM   13  H   UNL     1       2.653   3.746   0.736  1.00  0.00     0.212 HD
ENDBRANCH  11  12
BRANCH  11  14
HETATM   14  O   UNL     1      -0.081   3.400   0.892  1.00  0.00    -0.368 OA
HETATM   15  H   UNL     1      -0.419   4.310   0.834  1.00  0.00     0.212 HD
ENDBRANCH  11  14
ENDBRANCH   9  11
ENDBRANCH   1   9
TORSDOF 5
