REMARK  2 active torsions:
REMARK  status: ('A' for Active; 'I' for Inactive)
REMARK    1  A    between atoms: N_4  and  C_5 
REMARK    2  A    between atoms: C_5  and  C_6 
ROOT
HETATM    1  C   UNL     1      -4.515   0.796  -0.011  1.00  0.00    -0.037 A 
HETATM    2  C   UNL     1      -4.600  -0.320  -0.858  1.00  0.00     0.011 A 
HETATM    3  C   UNL     1      -5.816  -0.981  -1.055  1.00  0.00     0.026 A 
HETATM    4  C   UNL     1      -6.979  -0.517  -0.439  1.00  0.00     0.055 A 
HETATM    5 CL   UNL     1      -8.444  -1.384  -0.726  1.00  0.00    -0.083 Cl
HETATM    6  C   UNL     1      -6.923   0.619   0.373  1.00  0.00     0.056 A 
HETATM    7 CL   UNL     1      -8.322   1.276   1.145  1.00  0.00    -0.083 Cl
HETATM    8  C   UNL     1      -5.700   1.269   0.583  1.00  0.00     0.034 A 
ENDROOT
BRANCH   1   9
HETATM    9  C   UNL     1      -3.225   1.552   0.245  1.00  0.00     0.184 C 
BRANCH   9  10
HETATM   10  N   UNL     1      -2.022   0.786  -0.032  1.00  0.00    -0.279 N 
HETATM   11  C   UNL     1      -1.569  -0.340   0.594  1.00  0.00     0.136 A 
HETATM   12  C   UNL     1      -0.471  -0.709  -0.150  1.00  0.00     0.065 A 
HETATM   13  C   UNL     1       0.401  -1.893  -0.030  1.00  0.00     0.073 C 
HETATM   14  N   UNL     1      -0.260   0.221  -1.133  1.00  0.00    -0.164 NA
HETATM   15  N   UNL     1      -1.213   1.138  -1.047  1.00  0.00     0.004 NA
ENDBRANCH   9  10
ENDBRANCH   1   9
TORSDOF 2
