REMARK  2 active torsions:
REMARK  status: ('A' for Active; 'I' for Inactive)
REMARK    1  A    between atoms: N_4  and  C_5 
REMARK    2  A    between atoms: C_5  and  C_6 
ROOT
HETATM    1  C   UNL     1      -3.197   2.757  -0.107  1.00  0.00     0.166 A 
HETATM    2  N   UNL     1      -3.904   1.736  -0.560  1.00  0.00    -0.224 NA
HETATM    3  C   UNL     1      -5.204   2.124  -0.388  1.00  0.00     0.095 A 
HETATM    4  C   UNL     1      -6.400   1.447  -0.646  1.00  0.00     0.058 A 
HETATM    5  C   UNL     1      -7.594   2.109  -0.345  1.00  0.00     0.036 A 
HETATM    6 CL   UNL     1      -9.092   1.304  -0.624  1.00  0.00    -0.084 Cl
HETATM    7  C   UNL     1      -7.602   3.407   0.185  1.00  0.00     0.026 A 
HETATM    8  C   UNL     1      -6.409   4.095   0.445  1.00  0.00     0.041 A 
HETATM    9  C   UNL     1      -5.242   3.400   0.146  1.00  0.00     0.106 A 
HETATM   10  O   UNL     1      -3.954   3.819   0.328  1.00  0.00    -0.292 OA
ENDROOT
BRANCH   1  11
HETATM   11  C   UNL     1      -1.724   2.900   0.035  1.00  0.00     0.232 C 
BRANCH  11  12
HETATM   12  N   UNL     1      -1.040   1.631  -0.119  1.00  0.00    -0.276 N 
HETATM   13  C   UNL     1      -1.334   0.421   0.444  1.00  0.00     0.136 A 
HETATM   14  C   UNL     1      -0.423  -0.440  -0.123  1.00  0.00     0.065 A 
HETATM   15  C   UNL     1      -0.331  -1.907  -0.009  1.00  0.00     0.073 C 
HETATM   16  N   UNL     1       0.445   0.278  -0.904  1.00  0.00    -0.164 NA
HETATM   17  N   UNL     1       0.074   1.552  -0.872  1.00  0.00     0.005 NA
ENDBRANCH  11  12
ENDBRANCH   1  11
TORSDOF 2
