REMARK  4 active torsions:
REMARK  status: ('A' for Active; 'I' for Inactive)
REMARK    1  A    between atoms: N_1  and  C_2 
REMARK    2  A    between atoms: C_7  and  C_8 
REMARK    3  A    between atoms: C_8  and  C_9 
REMARK    4  A    between atoms: C_9  and  O_10 
ROOT
HETATM    1  C   UNL     1      -1.294   0.172  -0.001  1.00  0.00     0.088 C 
ENDROOT
BRANCH   1   2
HETATM    2  C   UNL     1      -2.525   1.069  -0.008  1.00  0.00    -0.034 A 
HETATM    3  C   UNL     1      -3.808   0.488   0.147  1.00  0.00     0.012 A 
HETATM    4  C   UNL     1      -4.939   1.316   0.217  1.00  0.00     0.024 A 
HETATM    5  C   UNL     1      -4.835   2.693   0.048  1.00  0.00     0.002 A 
HETATM    6  C   UNL     1      -3.586   3.265  -0.149  1.00  0.00     0.001 A 
HETATM    7  C   UNL     1      -2.443   2.462  -0.169  1.00  0.00     0.009 A 
BRANCH   3   8
HETATM    8  N   UNL     1      -3.975  -0.879   0.446  1.00  0.00    -0.302 NA
HETATM    9  H   UNL     1      -4.912  -1.212   0.237  1.00  0.00     0.124 HD
HETATM   10  H   UNL     1      -3.281  -1.481   0.016  1.00  0.00     0.124 HD
ENDBRANCH   3   8
ENDBRANCH   1   2
BRANCH   1  11
HETATM   11  C   UNL     1       0.092   0.660  -0.482  1.00  0.00     0.143 C 
HETATM   12  C   UNL     1       0.957  -0.592  -0.745  1.00  0.00     0.165 C 
HETATM   13  C   UNL     1       2.154  -0.787   0.144  1.00  0.00     0.108 C 
HETATM   14  O   UNL     1       0.684  -1.431  -1.608  1.00  0.00    -0.294 OA
HETATM   15  C   UNL     1       2.969   0.494   0.171  1.00  0.00     0.175 C 
HETATM   16  O   UNL     1       2.193   1.694   0.116  1.00  0.00    -0.387 OA
HETATM   17  C   UNL     1       0.834   1.526   0.547  1.00  0.00     0.213 C 
BRANCH  11  18
HETATM   18  O   UNL     1      -0.017   1.365  -1.726  1.00  0.00    -0.380 OA
HETATM   19  H   UNL     1       0.871   1.705  -1.940  1.00  0.00     0.211 HD
ENDBRANCH  11  18
ENDBRANCH   1  11
TORSDOF 4
