REMARK  4 active torsions:
REMARK  status: ('A' for Active; 'I' for Inactive)
REMARK    1  A    between atoms: C_2  and  C_4 
REMARK    2  A    between atoms: C_4  and  C_5 
REMARK    3  A    between atoms: C_5  and  C_6 
REMARK       I    between atoms: C_6  and  N_8 
REMARK    4  A    between atoms: N_8  and  C_9 
ROOT
HETATM    1  C   UNL     1       1.277   0.911   0.202  1.00  0.00     0.224 C 
HETATM    2  O   UNL     1       1.371   2.131   0.281  1.00  0.00    -0.273 OA
HETATM    3  N   UNL     1       0.078   0.233   0.165  1.00  0.00    -0.305 N 
HETATM    4  H   UNL     1       0.055  -0.770   0.073  1.00  0.00     0.171 HD
ENDROOT
BRANCH   1   5
HETATM    5  C   UNL     1       2.470  -0.026   0.170  1.00  0.00     0.107 C 
BRANCH   5   6
HETATM    6  C   UNL     1       3.794   0.738   0.101  1.00  0.00     0.042 C 
BRANCH   6   7
HETATM    7  C   UNL     1       5.048  -0.109  -0.024  1.00  0.00    -0.093 C 
HETATM    8  C   UNL     1       5.100  -1.442   0.137  1.00  0.00     0.014 C 
HETATM    9  C   UNL     1       6.302   0.654  -0.364  1.00  0.00     0.042 C 
ENDBRANCH   6   7
ENDBRANCH   5   6
ENDBRANCH   1   5
BRANCH   3  10
HETATM   10  C   UNL     1      -1.134   0.854   0.074  1.00  0.00     0.355 C 
HETATM   11  O   UNL     1      -2.176   0.233  -0.092  1.00  0.00    -0.283 OA
ENDBRANCH   3  10
TORSDOF 4
