REMARK  3 active torsions:
REMARK  status: ('A' for Active; 'I' for Inactive)
REMARK    1  A    between atoms: C_6  and  C_7 
REMARK    2  A    between atoms: C_7  and  O_8 
REMARK    3  A    between atoms: O_8  and  C_9 
ROOT
HETATM    1  C   UNL     1       0.487  -1.966  -0.315  1.00  0.00     0.175 C 
HETATM    2  N   UNL     1      -0.394  -0.856  -0.059  1.00  0.00    -0.279 N 
HETATM    3  N   UNL     1      -1.706  -1.091   0.114  1.00  0.00     0.004 NA
HETATM    4  N   UNL     1      -2.305   0.079   0.280  1.00  0.00    -0.170 NA
HETATM    5  C   UNL     1      -1.349   1.050   0.227  1.00  0.00     0.164 A 
HETATM    6  C   UNL     1      -0.108   0.481   0.037  1.00  0.00     0.069 A 
ENDROOT
BRANCH   6   7
HETATM    7  C   UNL     1       1.248   1.062  -0.091  1.00  0.00     0.238 C 
BRANCH   7   8
HETATM    8  O   UNL     1       1.273   2.284   0.655  1.00  0.00    -0.322 OA
BRANCH   8   9
HETATM    9  C   UNL     1       1.304   3.424  -0.074  1.00  0.00     0.398 C 
HETATM   10  O   UNL     1       1.304   3.519  -1.289  1.00  0.00    -0.276 OA
ENDBRANCH   8   9
ENDBRANCH   7   8
ENDBRANCH   6   7
TORSDOF 3
