REMARK  4 active torsions:
REMARK  status: ('A' for Active; 'I' for Inactive)
REMARK    1  A    between atoms: N_4  and  C_5 
REMARK    2  A    between atoms: C_5  and  O_6 
REMARK    3  A    between atoms: O_6  and  C_7 
REMARK    4  A    between atoms: C_7  and  C_9 
ROOT
HETATM    1  C   UNL     1       0.839  -2.918  -0.881  1.00  0.00     0.330 C 
ENDROOT
BRANCH   1   2
HETATM    2  N   UNL     1       0.654  -1.573  -0.378  1.00  0.00    -0.236 N 
HETATM    3  C   UNL     1       1.010  -0.384  -0.965  1.00  0.00     0.145 A 
HETATM    4  C   UNL     1       0.809   0.588   0.000  1.00  0.00     0.071 A 
HETATM    5  C   UNL     1       0.809   1.588   0.000  1.00  0.00     0.074 C 
HETATM    6  N   UNL     1       0.377  -0.110   1.139  1.00  0.00    -0.136 NA
HETATM    7  N   UNL     1       0.250  -1.393   0.877  1.00  0.00    -0.064 NA
ENDBRANCH   1   2
BRANCH   1   8
HETATM    8  O   UNL     1       2.229  -3.109  -1.130  1.00  0.00    -0.299 OA
BRANCH   8   9
HETATM    9  C   UNL     1       3.009  -3.068  -0.011  1.00  0.00     0.268 C 
HETATM   10  O   UNL     1       2.646  -3.401   1.104  1.00  0.00    -0.264 OA
BRANCH   9  11
HETATM   11  C   UNL     1       4.376  -2.449  -0.339  1.00  0.00     0.037 C 
HETATM   12  C   UNL     1       4.607  -2.340  -1.855  1.00  0.00     0.025 C 
HETATM   13  C   UNL     1       4.460  -1.045   0.283  1.00  0.00     0.025 C 
HETATM   14  C   UNL     1       5.465  -3.333   0.278  1.00  0.00     0.025 C 
ENDBRANCH   9  11
ENDBRANCH   8   9
ENDBRANCH   1   8
TORSDOF 4
