REMARK  3 active torsions:
REMARK  status: ('A' for Active; 'I' for Inactive)
REMARK    1  A    between atoms: C_2  and  O_3 
REMARK    2  A    between atoms: C_2  and  C_11 
REMARK    3  A    between atoms: O_3  and  C_4 
ROOT
HETATM    1  O   UNL     1      -0.001   2.300   0.105  1.00  0.00    -0.270 OA
ENDROOT
BRANCH   1   2
HETATM    2  C   UNL     1       1.243   1.758   0.100  1.00  0.00     0.321 C 
HETATM    3  O   UNL     1       2.256   2.449  -0.042  1.00  0.00    -0.257 OA
BRANCH   2   4
HETATM    4  C   UNL     1       1.391   0.286   0.214  1.00  0.00     0.140 C 
HETATM    5  O   UNL     1       0.528  -0.545   0.935  1.00  0.00    -0.345 OA
HETATM    6  C   UNL     1       0.852  -1.851   0.422  1.00  0.00     0.179 C 
HETATM    7  C   UNL     1       2.292  -1.804  -0.068  1.00  0.00     0.057 C 
HETATM    8  C   UNL     1       2.429  -0.356  -0.333  1.00  0.00     0.018 C 
ENDBRANCH   2   4
ENDBRANCH   1   2
BRANCH   1   9
HETATM    9  C   UNL     1      -1.379   1.884   0.047  1.00  0.00     0.129 C 
HETATM   10  C   UNL     1      -2.405   2.905   0.326  1.00  0.00     0.227 C 
HETATM   11  C   UNL     1      -3.678   2.587   0.021  1.00  0.00     0.192 C 
HETATM   12  O   UNL     1      -1.942   3.993   0.768  1.00  0.00    -0.283 OA
HETATM   13  O   UNL     1      -4.145   1.384  -0.440  1.00  0.00    -0.355 OA
HETATM   14  C   UNL     1      -3.234   0.298  -0.266  1.00  0.00     0.205 C 
HETATM   15  C   UNL     1      -1.789   0.661  -0.327  1.00  0.00     0.041 C 
ENDBRANCH   1   9
TORSDOF 3
