REMARK  4 active torsions:
REMARK  status: ('A' for Active; 'I' for Inactive)
REMARK    1  A    between atoms: C_2  and  C_3 
REMARK    2  A    between atoms: C_3  and  C_4 
REMARK    3  A    between atoms: C_4  and  C_6 
REMARK    4  A    between atoms: C_6  and  S_8 
ROOT
HETATM    1  C   UNL     1       3.488  -0.158   0.183  1.00  0.00     0.205 C 
HETATM    2  O   UNL     1       4.576   0.411   0.095  1.00  0.00    -0.288 OA
ENDROOT
BRANCH   1   3
HETATM    3  C   UNL     1       3.390  -1.656  -0.097  1.00  0.00     0.087 C 
BRANCH   3   4
HETATM    4  C   UNL     1       2.248  -2.649   0.114  1.00  0.00     0.003 C 
HETATM    5  C   UNL     1       0.863  -2.402  -0.444  1.00  0.00     0.005 C 
ENDBRANCH   3   4
ENDBRANCH   1   3
BRANCH   1   6
HETATM    6  C   UNL     1       2.313   0.691   0.610  1.00  0.00     0.254 C 
HETATM    7  O   UNL     1       2.245   1.333   1.655  1.00  0.00    -0.277 OA
BRANCH   6   8
HETATM    8  S   UNL     1       1.282   0.867  -0.763  1.00  0.00    -0.089 SA
HETATM    9  C   UNL     1      -0.266   1.096   0.156  1.00  0.00     0.099 C 
ENDBRANCH   6   8
ENDBRANCH   1   6
TORSDOF 4
