REMARK  2 active torsions:
REMARK  status: ('A' for Active; 'I' for Inactive)
REMARK    1  A    between atoms: S_2  and  C_3 
REMARK       I    between atoms: C_3  and  N_5 
REMARK    2  A    between atoms: N_5  and  C_6 
ROOT
HETATM    1  C   UNL     1       0.677  -0.707   0.000  1.00  0.00     0.094 A 
HETATM    2  C   UNL     1       2.025  -1.097  -0.000  1.00  0.00     0.036 A 
HETATM    3  C   UNL     1       2.372  -2.444  -0.000  1.00  0.00     0.022 A 
HETATM    4  C   UNL     1       1.354  -3.378   0.000  1.00  0.00     0.120 A 
HETATM    5  N   UNL     1       0.048  -3.054   0.000  1.00  0.00    -0.231 NA
HETATM    6  C   UNL     1      -0.271  -1.735   0.000  1.00  0.00     0.236 A 
HETATM    7  F   UNL     1      -1.582  -1.476   0.000  1.00  0.00    -0.182 F 
ENDROOT
BRANCH   1   8
HETATM    8  N   UNL     1       0.452   0.690   0.000  1.00  0.00    -0.314 N 
HETATM    9  C   UNL     1      -0.732   1.371   0.000  1.00  0.00     0.284 C 
HETATM   10  O   UNL     1      -1.851   0.888   0.000  1.00  0.00    -0.260 OA
HETATM   11  H   UNL     1       1.287   1.238  -0.000  1.00  0.00     0.170 HD
BRANCH   9  12
HETATM   12  S   UNL     1      -0.610   3.127  -0.000  1.00  0.00    -0.073 SA
HETATM   13  C   UNL     1       1.059   3.672   0.000  1.00  0.00     0.100 C 
ENDBRANCH   9  12
ENDBRANCH   1   8
TORSDOF 2
