REMARK  3 active torsions:
REMARK  status: ('A' for Active; 'I' for Inactive)
REMARK    1  A    between atoms: N_1  and  C_2 
REMARK    2  A    between atoms: C_5  and  O_6 
REMARK    3  A    between atoms: O_6  and  C_7 
ROOT
HETATM    1  C   UNL     1       1.311  -0.399   0.000  1.00  0.00     0.757 A 
HETATM    2  N   UNL     1       1.275  -1.743  -0.000  1.00  0.00     0.049 NA
HETATM    3  N   UNL     1       0.066  -2.381  -0.000  1.00  0.00    -0.086 NA
HETATM    4  C   UNL     1      -1.052  -1.634  -0.000  1.00  0.00     0.314 A 
HETATM    5  N   UNL     1      -1.027  -0.295   0.000  1.00  0.00    -0.086 NA
HETATM    6  N   UNL     1       0.185   0.334   0.000  1.00  0.00     0.049 NA
ENDROOT
BRANCH   1   7
HETATM    7  N   UNL     1       2.520   0.245   0.000  1.00  0.00    -0.228 N 
HETATM    8  H   UNL     1       3.362  -0.305  -0.000  1.00  0.00     0.174 HD
HETATM    9  H   UNL     1       2.519   1.251   0.000  1.00  0.00     0.174 HD
ENDBRANCH   1   7
BRANCH   4  10
HETATM   10  O   UNL     1      -2.260  -2.360  -0.000  1.00  0.00    -0.248 OA
BRANCH  10  11
HETATM   11  C   UNL     1      -3.453  -1.673   0.000  1.00  0.00     0.406 C 
HETATM   12  O   UNL     1      -3.663  -0.474  -0.000  1.00  0.00    -0.276 OA
ENDBRANCH  10  11
ENDBRANCH   4  10
TORSDOF 3
