REMARK  3 active torsions:
REMARK  status: ('A' for Active; 'I' for Inactive)
REMARK    1  A    between atoms: C_2  and  S_3 
REMARK    2  A    between atoms: S_3  and  C_4 
REMARK    3  A    between atoms: C_9  and  C_10 
ROOT
HETATM    1  C   UNL     1      -0.843  -0.543  -0.396  1.00  0.00     0.115 A 
HETATM    2  N   UNL     1      -2.031   0.084  -0.608  1.00  0.00    -0.253 NA
HETATM    3  C   UNL     1      -2.096   1.415  -0.404  1.00  0.00     0.118 A 
HETATM    4  C   UNL     1      -1.012   2.184  -0.026  1.00  0.00     0.020 A 
HETATM    5  C   UNL     1       0.204   1.543   0.154  1.00  0.00     0.020 A 
HETATM    6  C   UNL     1       0.308   0.152  -0.024  1.00  0.00     0.083 A 
ENDROOT
BRANCH   6   7
HETATM    7  C   UNL     1       1.627  -0.537   0.156  1.00  0.00     0.420 C 
HETATM    8  F   UNL     1       2.087  -1.122  -0.985  1.00  0.00    -0.166 F 
HETATM    9  F   UNL     1       2.623   0.314   0.544  1.00  0.00    -0.166 F 
HETATM   10  F   UNL     1       1.602  -1.512   1.106  1.00  0.00    -0.166 F 
ENDBRANCH   6   7
BRANCH   1  11
HETATM   11  S   UNL     1      -0.858  -2.293  -0.711  1.00  0.00    -0.041 SA
BRANCH  11  12
HETATM   12  C   UNL     1      -2.325  -2.746   0.129  1.00  0.00     0.310 C 
HETATM   13  O   UNL     1      -2.550  -2.440   1.295  1.00  0.00    -0.295 OA
ENDBRANCH  11  12
ENDBRANCH   1  11
TORSDOF 3
