REMARK  5 active torsions:
REMARK  status: ('A' for Active; 'I' for Inactive)
REMARK    1  A    between atoms: O_2  and  C_3 
REMARK    2  A    between atoms: C_3  and  C_4 
REMARK    3  A    between atoms: C_3  and  O_8 
REMARK    4  A    between atoms: C_4  and  O_5 
REMARK    5  A    between atoms: O_5  and  C_6 
ROOT
HETATM    1  C   UNL     1       0.613   1.682   0.629  1.00  0.00     0.282 C 
ENDROOT
BRANCH   1   2
HETATM    2  O   UNL     1       1.732   2.000   0.000  1.00  0.00    -0.364 OA
HETATM    3  C   UNL     1       2.598   1.500   0.000  1.00  0.00     0.204 C 
ENDBRANCH   1   2
BRANCH   1   4
HETATM    4  C   UNL     1      -0.459   2.675   0.085  1.00  0.00     0.238 C 
BRANCH   4   5
HETATM    5  O   UNL     1      -1.748   2.088  -0.148  1.00  0.00    -0.324 OA
BRANCH   5   6
HETATM    6  C   UNL     1      -2.036   1.785  -1.439  1.00  0.00     0.398 C 
HETATM    7  O   UNL     1      -3.092   1.288  -1.798  1.00  0.00    -0.276 OA
ENDBRANCH   5   6
ENDBRANCH   4   5
ENDBRANCH   1   4
BRANCH   1   8
HETATM    8  O   UNL     1       0.866   0.500   0.000  1.00  0.00    -0.364 OA
HETATM    9  C   UNL     1       0.000   0.000   0.000  1.00  0.00     0.204 C 
ENDBRANCH   1   8
TORSDOF 5
