REMARK  1 active torsions:
REMARK  status: ('A' for Active; 'I' for Inactive)
REMARK    1  A    between atoms: N_4  and  C_5 
ROOT
HETATM    1  C   UNL     1      -2.900  -1.908   0.027  1.00  0.00     0.065 A 
HETATM    2  C   UNL     1      -2.960  -3.319   0.018  1.00  0.00     0.032 A 
HETATM    3  C   UNL     1      -4.179  -3.989   0.004  1.00  0.00     0.003 A 
HETATM    4  C   UNL     1      -5.362  -3.266   0.000  1.00  0.00     0.014 A 
HETATM    5  C   UNL     1      -5.346  -1.865   0.006  1.00  0.00    -0.006 A 
HETATM    6  C   UNL     1      -6.556  -1.164  -0.003  1.00  0.00     0.128 A 
HETATM    7  N   UNL     1      -6.678   0.178  -0.006  1.00  0.00    -0.272 NA
HETATM    8  C   UNL     1      -5.527   0.867  -0.000  1.00  0.00     0.117 A 
HETATM    9  C   UNL     1      -4.271   0.274   0.011  1.00  0.00     0.034 A 
HETATM   10  C   UNL     1      -4.124  -1.141   0.018  1.00  0.00     0.005 A 
ENDROOT
BRANCH   1  11
HETATM   11  N   UNL     1      -1.600  -1.304   0.042  1.00  0.00    -0.247 N 
HETATM   12  C   UNL     1      -0.361  -1.922   0.004  1.00  0.00     0.142 A 
HETATM   13  C   UNL     1       0.560  -0.899  -0.002  1.00  0.00     0.065 A 
HETATM   14  C   UNL     1       2.032  -0.948  -0.069  1.00  0.00     0.073 C 
HETATM   15  N   UNL     1      -0.100   0.288   0.064  1.00  0.00    -0.163 NA
HETATM   16  N   UNL     1      -1.398   0.033   0.094  1.00  0.00     0.009 NA
ENDBRANCH   1  11
TORSDOF 1
