REMARK  5 active torsions:
REMARK  status: ('A' for Active; 'I' for Inactive)
REMARK    1  A    between atoms: S_2  and  C_3 
REMARK    2  A    between atoms: C_3  and  C_5 
REMARK    3  A    between atoms: C_5  and  O_6 
REMARK    4  A    between atoms: C_5  and  C_7 
REMARK    5  A    between atoms: C_7  and  O_8 
ROOT
HETATM    1  C   UNL     1       1.494   1.167   0.440  1.00  0.00     0.230 C 
ENDROOT
BRANCH   1   2
HETATM    2  C   UNL     1       2.397   0.224  -0.380  1.00  0.00     0.216 C 
HETATM    3  O   UNL     1       2.793   0.493  -1.508  1.00  0.00    -0.283 OA
BRANCH   2   4
HETATM    4  S   UNL     1       2.931  -1.233   0.459  1.00  0.00    -0.094 SA
HETATM    5  C   UNL     1       1.692  -2.384  -0.168  1.00  0.00     0.099 C 
ENDBRANCH   2   4
ENDBRANCH   1   2
BRANCH   1   6
HETATM    6  O   UNL     1       1.615   2.529   0.011  1.00  0.00    -0.384 OA
HETATM    7  H   UNL     1       2.246   2.523  -0.737  1.00  0.00     0.210 HD
ENDBRANCH   1   6
BRANCH   1   8
HETATM    8  C   UNL     1       0.060   0.798   0.265  1.00  0.00     0.186 C 
BRANCH   8   9
HETATM    9  O   UNL     1      -0.851   1.770  -0.068  1.00  0.00    -0.390 OA
HETATM   10  H   UNL     1      -0.391   2.627  -0.198  1.00  0.00     0.210 HD
ENDBRANCH   8   9
ENDBRANCH   1   8
TORSDOF 5
