REMARK  2 active torsions:
REMARK  status: ('A' for Active; 'I' for Inactive)
REMARK    1  A    between atoms: N_4  and  C_5 
REMARK    2  A    between atoms: C_10  and  O_11 
ROOT
HETATM    1  C   UNL     1       3.042  -1.634   0.000  1.00  0.00     0.130 A 
HETATM    2  C   UNL     1       4.198  -0.942   0.000  1.00  0.00     0.052 A 
HETATM    3  C   UNL     1       5.497  -1.557  -0.000  1.00  0.00     0.000 A 
HETATM    4  C   UNL     1       6.643  -0.762  -0.000  1.00  0.00     0.017 A 
HETATM    5  C   UNL     1       7.887  -1.373  -0.000  1.00  0.00     0.037 A 
HETATM    6  C   UNL     1       7.966  -2.767  -0.000  1.00  0.00     0.068 A 
HETATM    7  C   UNL     1       6.816  -3.565   0.000  1.00  0.00     0.074 A 
HETATM    8  C   UNL     1       5.579  -2.932  -0.000  1.00  0.00     0.092 A 
HETATM    9  O   UNL     1       4.401  -3.700  -0.000  1.00  0.00    -0.273 OA
HETATM   10  C   UNL     1       3.116  -3.129   0.000  1.00  0.00     0.317 A 
HETATM   11  O   UNL     1       2.129  -3.853   0.000  1.00  0.00    -0.257 OA
ENDROOT
BRANCH   1  12
HETATM   12  N   UNL     1       1.813  -0.944   0.000  1.00  0.00    -0.241 N 
HETATM   13  C   UNL     1       1.717   0.443   0.000  1.00  0.00     0.143 A 
HETATM   14  C   UNL     1       0.391   0.769   0.000  1.00  0.00     0.065 A 
HETATM   15  C   UNL     1      -0.133   2.110  -0.000  1.00  0.00     0.073 C 
HETATM   16  N   UNL     1      -0.323  -0.390   0.000  1.00  0.00    -0.163 NA
HETATM   17  N   UNL     1       0.533  -1.413   0.000  1.00  0.00     0.010 NA
ENDBRANCH   1  12
BRANCH   6  18
HETATM   18  O   UNL     1       9.215  -3.309  -0.000  1.00  0.00    -0.361 OA
HETATM   19  H   UNL     1       9.133  -4.276   0.000  1.00  0.00     0.217 HD
ENDBRANCH   6  18
TORSDOF 2
