REMARK  3 active torsions:
REMARK  status: ('A' for Active; 'I' for Inactive)
REMARK    1  A    between atoms: C_2  and  C_3 
REMARK    2  A    between atoms: C_3  and  C_4 
REMARK    3  A    between atoms: N_7  and  C_9 
ROOT
HETATM    1  C   UNL     1      -2.598   0.500   0.000  1.00  0.00     0.152 A 
HETATM    2  C   UNL     1      -3.464   0.000   0.000  1.00  0.00     0.077 C 
HETATM    3  N   UNL     1      -4.330  -0.500   0.000  1.00  0.00    -0.196 NA
HETATM    4  N   UNL     1      -1.732   0.000   0.000  1.00  0.00    -0.247 NA
HETATM    5  C   UNL     1      -1.732  -1.000   0.000  1.00  0.00     0.143 A 
ENDROOT
BRANCH   1   6
HETATM    6  C   UNL     1      -2.513   1.835   0.838  1.00  0.00     0.033 C 
BRANCH   6   7
HETATM    7  C   UNL     1      -1.455   2.843   0.277  1.00  0.00    -0.002 C 
HETATM    8  C   UNL     1      -0.001   2.444   0.517  1.00  0.00     0.005 C 
ENDBRANCH   6   7
ENDBRANCH   1   6
BRANCH   4   9
HETATM    9  C   UNL     1      -0.964   0.199  -1.370  1.00  0.00     0.324 C 
HETATM   10  O   UNL     1      -0.310  -0.665  -1.989  1.00  0.00    -0.289 OA
ENDBRANCH   4   9
TORSDOF 3
