REMARK  2 active torsions:
REMARK  status: ('A' for Active; 'I' for Inactive)
REMARK    1  A    between atoms: S_2  and  C_3 
REMARK    2  A    between atoms: C_3  and  C_5 
ROOT
HETATM    1  C   UNL     1       0.156  -0.573   0.016  1.00  0.00     0.072 A 
HETATM    2  C   UNL     1      -0.409  -1.821  -0.221  1.00  0.00     0.095 A 
HETATM    3  S   UNL     1      -2.112  -1.631  -0.258  1.00  0.00    -0.008 SA
HETATM    4  N   UNL     1      -2.028   0.005   0.058  1.00  0.00    -0.037 NA
HETATM    5  N   UNL     1      -0.788   0.442   0.188  1.00  0.00    -0.173 NA
ENDROOT
BRANCH   1   6
HETATM    6  C   UNL     1       1.618  -0.227   0.159  1.00  0.00     0.096 C 
HETATM    7  C   UNL     1       1.900   1.262  -0.058  1.00  0.00     0.028 C 
BRANCH   6   8
HETATM    8  S   UNL     1       2.665  -1.158  -1.039  1.00  0.00    -0.163 SA
HETATM    9  C   UNL     1       3.043  -2.625  -0.046  1.00  0.00     0.090 C 
ENDBRANCH   6   8
ENDBRANCH   1   6
TORSDOF 2
