REMARK  5 active torsions:
REMARK  status: ('A' for Active; 'I' for Inactive)
REMARK    1  A    between atoms: C_2  and  C_3 
REMARK    2  A    between atoms: C_5  and  C_6 
REMARK    3  A    between atoms: C_6  and  C_7 
REMARK    4  A    between atoms: C_7  and  N_8 
REMARK    5  A    between atoms: N_8  and  C_9 
ROOT
HETATM    1  C   UNL     1       2.820  -0.154  -0.000  1.00  0.00     0.018 C 
ENDROOT
BRANCH   1   2
HETATM    2  C   UNL     1       4.101  -0.765   0.000  1.00  0.00     0.008 C 
HETATM    3  C   UNL     1       5.196   0.000   0.000  1.00  0.00    -0.063 C 
HETATM    4  C   UNL     1       5.196   1.000   0.000  1.00  0.00     0.048 C 
BRANCH   3   5
HETATM    5  C   UNL     1       6.495  -0.756  -0.000  1.00  0.00    -0.004 C 
HETATM    6  C   UNL     1       6.699  -2.082  -0.000  1.00  0.00     0.012 C 
ENDBRANCH   3   5
ENDBRANCH   1   2
BRANCH   1   7
HETATM    7  C   UNL     1       1.739  -0.869   0.000  1.00  0.00     0.090 C 
BRANCH   7   8
HETATM    8  N   UNL     1       0.584  -0.175   0.000  1.00  0.00    -0.344 N 
HETATM    9  H   UNL     1       0.585   0.846  -0.000  1.00  0.00     0.167 HD
BRANCH   8  10
HETATM   10  C   UNL     1      -0.590  -0.819  -0.000  1.00  0.00     0.352 C 
HETATM   11  O   UNL     1      -1.665  -0.233   0.000  1.00  0.00    -0.283 OA
ENDBRANCH   8  10
ENDBRANCH   7   8
ENDBRANCH   1   7
TORSDOF 5
