REMARK  3 active torsions:
REMARK  status: ('A' for Active; 'I' for Inactive)
REMARK    1  A    between atoms: S_2  and  C_3 
REMARK    2  A    between atoms: C_3  and  N_5 
REMARK    3  A    between atoms: N_5  and  C_6 
ROOT
HETATM    1  C   UNL     1      -0.285  -0.859  -0.142  1.00  0.00     0.051 A 
HETATM    2  C   UNL     1       0.030  -2.223  -0.160  1.00  0.00     0.034 A 
HETATM    3  C   UNL     1      -0.974  -3.181  -0.042  1.00  0.00     0.041 A 
HETATM    4  C   UNL     1      -2.284  -2.749   0.082  1.00  0.00     0.102 A 
HETATM    5 BR   UNL     1      -3.667  -4.040   0.195  1.00  0.00    -0.029 Br
HETATM    6  N   UNL     1      -2.630  -1.449   0.106  1.00  0.00    -0.251 NA
HETATM    7  C   UNL     1      -1.631  -0.536  -0.005  1.00  0.00     0.147 A 
ENDROOT
BRANCH   1   8
HETATM    8  N   UNL     1       0.789   0.038  -0.322  1.00  0.00    -0.341 N 
HETATM    9  H   UNL     1       1.647  -0.395  -0.640  1.00  0.00     0.167 HD
BRANCH   8  10
HETATM   10  C   UNL     1       0.902   1.399  -0.170  1.00  0.00     0.138 C 
HETATM   11  S   UNL     1      -0.188   2.504   0.434  1.00  0.00    -0.053 SA
BRANCH  10  12
HETATM   12  S   UNL     1       2.480   1.941  -0.745  1.00  0.00    -0.105 SA
HETATM   13  C   UNL     1       3.619   0.907   0.208  1.00  0.00     0.098 C 
ENDBRANCH  10  12
ENDBRANCH   8  10
ENDBRANCH   1   8
TORSDOF 3
