REMARK  3 active torsions:
REMARK  status: ('A' for Active; 'I' for Inactive)
REMARK    1  A    between atoms: N_1  and  C_2 
REMARK    2  A    between atoms: C_4  and  O_5 
REMARK    3  A    between atoms: O_5  and  C_6 
ROOT
HETATM    1  C   UNL     1      -0.719  -0.839  -0.000  1.00  0.00     0.703 A 
HETATM    2  N   UNL     1      -1.865  -0.238  -0.000  1.00  0.00    -0.040 NA
HETATM    3  C   UNL     1      -1.874   1.135  -0.000  1.00  0.00     0.196 A 
HETATM    4  C   UNL     1      -0.766   1.882  -0.000  1.00  0.00     0.134 A 
HETATM    5  C   UNL     1       0.528   1.193  -0.000  1.00  0.00     0.263 A 
HETATM    6  O   UNL     1       1.585   1.810   0.000  1.00  0.00    -0.268 OA
HETATM    7  N   UNL     1       0.462  -0.167  -0.000  1.00  0.00    -0.154 N 
HETATM    8  H   UNL     1       1.340  -0.657   0.000  1.00  0.00     0.187 HD
ENDROOT
BRANCH   1   9
HETATM    9  N   UNL     1      -0.662  -2.186  -0.000  1.00  0.00    -0.233 N 
HETATM   10  H   UNL     1      -1.537  -2.696  -0.000  1.00  0.00     0.174 HD
HETATM   11  H   UNL     1       0.196  -2.715   0.000  1.00  0.00     0.174 HD
ENDBRANCH   1   9
BRANCH   3  12
HETATM   12  O   UNL     1      -3.108   1.835  -0.000  1.00  0.00    -0.266 OA
BRANCH  12  13
HETATM   13  C   UNL     1      -4.261   1.120  -0.000  1.00  0.00     0.405 C 
HETATM   14  O   UNL     1      -5.373   1.636   0.000  1.00  0.00    -0.276 OA
ENDBRANCH  12  13
ENDBRANCH   3  12
TORSDOF 3
