REMARK  6 active torsions:
REMARK  status: ('A' for Active; 'I' for Inactive)
REMARK    1  A    between atoms: O_2  and  C_3 
REMARK       I    between atoms: C_3  and  N_5 
REMARK    2  A    between atoms: N_5  and  C_6 
REMARK    3  A    between atoms: C_6  and  C_7 
REMARK    4  A    between atoms: C_7  and  O_8 
REMARK    5  A    between atoms: C_7  and  C_9 
REMARK    6  A    between atoms: C_15  and  O_16 
ROOT
HETATM    1  C   UNL     1       1.027  -1.834  -0.172  1.00  0.00     0.159 C 
ENDROOT
BRANCH   1   2
HETATM    2  C   UNL     1       0.905  -3.375  -0.182  1.00  0.00     0.160 C 
BRANCH   2   3
HETATM    3  N   UNL     1      -0.346  -3.880  -0.704  1.00  0.00    -0.334 N 
HETATM    4  C   UNL     1      -0.648  -5.212  -0.667  1.00  0.00     0.360 C 
HETATM    5  O   UNL     1       0.175  -6.099  -0.503  1.00  0.00    -0.239 OA
HETATM    6  H   UNL     1      -1.046  -3.252  -1.071  1.00  0.00     0.164 HD
BRANCH   4   7
HETATM    7  O   UNL     1      -1.967  -5.460  -0.867  1.00  0.00    -0.309 OA
HETATM    8  C   UNL     1      -2.881  -4.697  -0.068  1.00  0.00     0.215 C 
ENDBRANCH   4   7
ENDBRANCH   2   3
ENDBRANCH   1   2
BRANCH   1   9
HETATM    9  O   UNL     1       2.057  -1.413   0.724  1.00  0.00    -0.390 OA
HETATM   10  H   UNL     1       2.841  -1.963   0.541  1.00  0.00     0.210 HD
ENDBRANCH   1   9
BRANCH   1  11
HETATM   11  C   UNL     1      -0.238  -1.117   0.236  1.00  0.00     0.016 C 
HETATM   12  C   UNL     1      -0.538   0.188   0.068  1.00  0.00    -0.022 C 
HETATM   13  C   UNL     1       0.369   1.251  -0.339  1.00  0.00     0.093 C 
HETATM   14  C   UNL     1      -1.987   0.629   0.178  1.00  0.00     0.068 C 
HETATM   15  C   UNL     1      -0.081   2.476  -0.643  1.00  0.00     0.171 C 
HETATM   16  O   UNL     1      -1.380   2.908  -0.540  1.00  0.00    -0.360 OA
HETATM   17  C   UNL     1      -2.128   2.131   0.405  1.00  0.00     0.179 C 
BRANCH  13  18
HETATM   18  O   UNL     1       1.724   1.008  -0.337  1.00  0.00    -0.358 OA
HETATM   19  H   UNL     1       1.893   0.289   0.312  1.00  0.00     0.217 HD
ENDBRANCH  13  18
ENDBRANCH   1  11
TORSDOF 6
