REMARK  6 active torsions:
REMARK  status: ('A' for Active; 'I' for Inactive)
REMARK    1  A    between atoms: N_4  and  C_5 
REMARK    2  A    between atoms: C_5  and  C_6 
REMARK    3  A    between atoms: C_8  and  O_9 
REMARK    4  A    between atoms: C_10  and  O_11 
REMARK    5  A    between atoms: C_12  and  N_13 
REMARK    6  A    between atoms: C_16  and  O_17 
ROOT
HETATM    1  N   UNL     1      -4.823   1.141   1.288  1.00  0.00    -0.105 NA
HETATM    2  N   UNL     1      -5.800   1.819   1.696  1.00  0.00    -0.167 NA
HETATM    3  N   UNL     1      -6.684   2.427   2.065  1.00  0.00     0.068 N 
ENDROOT
BRANCH   1   4
HETATM    4  C   UNL     1      -5.047   0.336   0.000  1.00  0.00     0.210 C 
HETATM    5  C   UNL     1      -5.047  -0.664   0.000  1.00  0.00     0.203 C 
HETATM    6  C   UNL     1      -3.429  -1.029   0.252  1.00  0.00     0.288 C 
HETATM    7  O   UNL     1      -2.598  -0.493  -0.773  1.00  0.00    -0.349 OA
HETATM    8  C   UNL     1      -2.743   0.921  -0.912  1.00  0.00     0.175 C 
HETATM    9  C   UNL     1      -4.240   1.151  -1.084  1.00  0.00     0.179 C 
BRANCH   5  10
HETATM   10  O   UNL     1      -5.867  -0.986   1.284  1.00  0.00    -0.388 OA
HETATM   11  H   UNL     1      -6.764  -1.220   0.983  1.00  0.00     0.210 HD
ENDBRANCH   5  10
BRANCH   6  12
HETATM   12  O   UNL     1      -3.188  -2.446   0.235  1.00  0.00    -0.369 OA
HETATM   13  H   UNL     1      -3.057  -2.714   1.158  1.00  0.00     0.212 HD
ENDBRANCH   6  12
BRANCH   8  14
HETATM   14  C   UNL     1      -2.041   1.712   0.220  1.00  0.00     0.180 C 
BRANCH  14  15
HETATM   15  N   UNL     1      -0.660   1.257   0.344  1.00  0.00    -0.281 N 
HETATM   16  C   UNL     1      -0.304   0.103   1.002  1.00  0.00     0.136 C 
HETATM   17  C   UNL     1       0.477  -0.529   0.059  1.00  0.00     0.065 C 
HETATM   18  C   UNL     1       0.725  -1.973  -0.117  1.00  0.00     0.073 C 
HETATM   19  N   UNL     1       0.863   0.386  -0.889  1.00  0.00    -0.164 NA
HETATM   20  N   UNL     1       0.207   1.513  -0.657  1.00  0.00     0.004 NA
ENDBRANCH  14  15
ENDBRANCH   8  14
BRANCH   9  21
HETATM   21  O   UNL     1      -4.575   2.540  -1.041  1.00  0.00    -0.391 OA
HETATM   22  H   UNL     1      -4.191   2.972  -1.825  1.00  0.00     0.210 HD
ENDBRANCH   9  21
ENDBRANCH   1   4
TORSDOF 6
