REMARK  6 active torsions:
REMARK  status: ('A' for Active; 'I' for Inactive)
REMARK    1  A    between atoms: C_2  and  O_3 
REMARK    2  A    between atoms: O_3  and  C_4 
REMARK    3  A    between atoms: C_4  and  C_5 
REMARK    4  A    between atoms: C_4  and  C_7 
REMARK    5  A    between atoms: C_7  and  C_8 
REMARK    6  A    between atoms: C_8  and  O_9 
ROOT
HETATM    1  C   UNL     1      -0.524  -1.044   0.528  1.00  0.00     0.128 C 
HETATM    2  C   UNL     1      -0.703  -2.084  -0.583  1.00  0.00     0.073 C 
HETATM    3  C   UNL     1       0.384  -3.142  -0.463  1.00  0.00     0.178 C 
HETATM    4  O   UNL     1       1.666  -2.581  -0.709  1.00  0.00    -0.359 OA
HETATM    5  C   UNL     1       1.921  -1.570   0.152  1.00  0.00     0.188 C 
HETATM    6  C   UNL     1       1.023  -0.848   0.872  1.00  0.00     0.205 C 
HETATM    7  O   UNL     1       1.238   0.054   1.735  1.00  0.00    -0.288 OA
ENDROOT
BRANCH   1   8
HETATM    8  C   UNL     1      -1.106   0.355   0.155  1.00  0.00     0.080 C 
BRANCH   8   9
HETATM    9  C   UNL     1      -2.522   0.704  -0.332  1.00  0.00     0.153 C 
BRANCH   9  10
HETATM   10  O   UNL     1      -2.952   1.895   0.380  1.00  0.00    -0.384 OA
BRANCH  10  11
HETATM   11  C   UNL     1      -2.409   3.179   0.057  1.00  0.00     0.163 C 
HETATM   12  C   UNL     1      -0.930   3.329  -0.260  1.00  0.00     0.033 C 
ENDBRANCH  10  11
ENDBRANCH   9  10
BRANCH   9  13
HETATM   13  C   UNL     1      -3.594  -0.339  -0.037  1.00  0.00     0.254 C 
HETATM   14  F   UNL     1      -4.743   0.004  -0.698  1.00  0.00    -0.253 F 
ENDBRANCH   9  13
ENDBRANCH   8   9
ENDBRANCH   1   8
BRANCH   1  15
HETATM   15  O   UNL     1      -1.196  -1.635   1.657  1.00  0.00    -0.381 OA
HETATM   16  H   UNL     1      -1.966  -1.088   1.859  1.00  0.00     0.211 HD
ENDBRANCH   1  15
TORSDOF 6
