REMARK  3 active torsions:
REMARK  status: ('A' for Active; 'I' for Inactive)
REMARK    1  A    between atoms: C_2  and  C_3 
REMARK    2  A    between atoms: C_3  and  C_6 
REMARK       I    between atoms: C_6  and  N_8 
REMARK    3  A    between atoms: N_8  and  C_9 
ROOT
HETATM    1  C   UNL     1       2.598  -1.500   0.000  1.00  0.00     0.184 C 
HETATM    2  C   UNL     1       3.464  -1.000   0.000  1.00  0.00     0.073 C 
HETATM    3  N   UNL     1       4.330  -0.500   0.000  1.00  0.00    -0.196 NA
ENDROOT
BRANCH   1   4
HETATM    4  C   UNL     1       2.626  -2.949   0.562  1.00  0.00     0.024 C 
HETATM    5  C   UNL     1       1.392  -3.795   0.242  1.00  0.00     0.007 C 
ENDBRANCH   1   4
BRANCH   1   6
HETATM    6  C   UNL     1       1.444  -0.665   0.652  1.00  0.00     0.241 C 
HETATM    7  O   UNL     1       1.647   0.173   1.531  1.00  0.00    -0.272 OA
HETATM    8  N   UNL     1       0.169  -0.957   0.203  1.00  0.00    -0.304 N 
HETATM    9  H   UNL     1      -0.058  -1.885  -0.113  1.00  0.00     0.171 HD
BRANCH   8  10
HETATM   10  C   UNL     1      -0.886  -0.067   0.258  1.00  0.00     0.355 C 
HETATM   11  O   UNL     1      -0.827   1.150   0.259  1.00  0.00    -0.283 OA
ENDBRANCH   8  10
ENDBRANCH   1   6
TORSDOF 3
