REMARK  3 active torsions:
REMARK  status: ('A' for Active; 'I' for Inactive)
REMARK    1  A    between atoms: C_2  and  N_3 
REMARK    2  A    between atoms: C_7  and  C_8 
REMARK    3  A    between atoms: C_8  and  O_10 
ROOT
HETATM    1  N   UNL     1       1.034  -0.248  -1.207  1.00  0.00    -0.275 N 
HETATM    2  N   UNL     1       0.410  -0.746  -2.406  1.00  0.00    -0.235 NA
HETATM    3  C   UNL     1      -0.943  -1.175  -2.063  1.00  0.00     0.113 C 
HETATM    4  C   UNL     1      -1.375  -0.227  -0.938  1.00  0.00     0.054 C 
HETATM    5  C   UNL     1       0.000   0.000   0.000  1.00  0.00     0.204 C 
HETATM    6  H   UNL     1       0.977  -1.519  -2.773  1.00  0.00     0.146 HD
ENDROOT
BRANCH   5   7
HETATM    7  C   UNL     1       0.000   1.000   0.000  1.00  0.00     0.165 C 
HETATM    8  O   UNL     1       0.867   1.842  -0.235  1.00  0.00    -0.648 OA
BRANCH   7   9
HETATM    9  O   UNL     1      -1.026   1.589   0.699  1.00  0.00    -0.775 OA
HETATM   10  H   UNL     1      -0.777   2.541   0.678  1.00  0.00     0.167 HD
ENDBRANCH   7   9
ENDBRANCH   5   7
BRANCH   1  11
HETATM   11  C   UNL     1       2.387  -0.498  -1.010  1.00  0.00     0.367 C 
HETATM   12  O   UNL     1       3.128  -1.076  -1.795  1.00  0.00    -0.282 OA
ENDBRANCH   1  11
TORSDOF 3
