REMARK  3 active torsions:
REMARK  status: ('A' for Active; 'I' for Inactive)
REMARK    1  A    between atoms: C_2  and  O_3 
REMARK    2  A    between atoms: O_3  and  C_4 
REMARK    3  A    between atoms: N_6  and  C_7 
ROOT
HETATM    1  C   UNL     1       0.809   1.563   0.000  1.00  0.00     0.216 C 
HETATM    2  S   UNL     1      -0.142   2.920  -0.000  1.00  0.00    -0.033 SA
HETATM    3  N   UNL     1       0.398   0.261   0.000  1.00  0.00    -0.305 N 
HETATM    4  H   UNL     1       1.126  -0.388  -0.000  1.00  0.00     0.171 HD
ENDROOT
BRANCH   1   5
HETATM    5  O   UNL     1       2.152   1.751  -0.000  1.00  0.00    -0.327 OA
BRANCH   5   6
HETATM    6  C   UNL     1       3.464   1.000   0.000  1.00  0.00     0.173 C 
HETATM    7  C   UNL     1       3.464   0.000   0.000  1.00  0.00     0.034 C 
ENDBRANCH   5   6
ENDBRANCH   1   5
BRANCH   3   8
HETATM    8  C   UNL     1      -0.689  -0.596   0.000  1.00  0.00     0.355 C 
HETATM    9  O   UNL     1      -1.857  -0.275   0.000  1.00  0.00    -0.283 OA
ENDBRANCH   3   8
TORSDOF 3
