REMARK  5 active torsions:
REMARK  status: ('A' for Active; 'I' for Inactive)
REMARK    1  A    between atoms: C_2  and  C_3 
REMARK    2  A    between atoms: C_3  and  C_4 
REMARK    3  A    between atoms: C_4  and  C_6 
REMARK    4  A    between atoms: C_6  and  O_8 
REMARK    5  A    between atoms: O_8  and  C_9 
ROOT
HETATM    1  O   UNL     1       0.873  -0.483   1.153  1.00  0.00    -0.269 OA
ENDROOT
BRANCH   1   2
HETATM    2  C   UNL     1       1.043  -1.361   0.127  1.00  0.00     0.334 C 
HETATM    3  O   UNL     1       1.035  -1.215  -1.088  1.00  0.00    -0.256 OA
BRANCH   2   4
HETATM    4  C   UNL     1       0.799  -2.766   0.691  1.00  0.00     0.224 C 
HETATM    5  O   UNL     1       1.400  -3.199   1.668  1.00  0.00    -0.287 OA
BRANCH   4   6
HETATM    6  C   UNL     1      -0.272  -3.586  -0.048  1.00  0.00     0.089 C 
BRANCH   6   7
HETATM    7  C   UNL     1      -1.732  -3.000   0.000  1.00  0.00     0.003 C 
HETATM    8  C   UNL     1      -1.732  -2.000   0.000  1.00  0.00     0.005 C 
ENDBRANCH   6   7
ENDBRANCH   4   6
ENDBRANCH   2   4
ENDBRANCH   1   2
BRANCH   1   9
HETATM    9  C   UNL     1       0.623   0.839   0.728  1.00  0.00     0.129 C 
HETATM   10  C   UNL     1       1.713   1.681   0.242  1.00  0.00     0.227 C 
HETATM   11  C   UNL     1       1.365   2.882  -0.260  1.00  0.00     0.192 C 
HETATM   12  O   UNL     1       2.854   1.163   0.374  1.00  0.00    -0.283 OA
HETATM   13  O   UNL     1       0.111   3.429  -0.332  1.00  0.00    -0.355 OA
HETATM   14  C   UNL     1      -0.945   2.708   0.304  1.00  0.00     0.205 C 
HETATM   15  C   UNL     1      -0.614   1.351   0.826  1.00  0.00     0.041 C 
ENDBRANCH   1   9
TORSDOF 5
