REMARK  0 active torsions:
REMARK  status: ('A' for Active; 'I' for Inactive)
REMARK       I    between atoms: N_4  and  C_5 
REMARK       I    between atoms: C_5  and  N_6 
ROOT
HETATM    1  C   UNL     1       0.608  -1.930  -0.000  1.00  0.00     0.073 C 
HETATM    2  C   UNL     1      -0.396  -0.890   0.000  1.00  0.00     0.066 A 
HETATM    3  C   UNL     1      -1.773  -0.956   0.000  1.00  0.00     0.147 A 
HETATM    4  N   UNL     1      -2.195   0.352   0.000  1.00  0.00    -0.197 N 
HETATM    5  C   UNL     1      -3.507   0.857  -0.000  1.00  0.00     0.337 C 
HETATM    6  N   UNL     1      -3.541   2.223  -0.000  1.00  0.00    -0.350 N 
HETATM    7  O   UNL     1      -4.471   0.107   0.000  1.00  0.00    -0.246 OA
HETATM    8  N   UNL     1      -1.117   1.181   0.000  1.00  0.00     0.013 NA
HETATM    9  N   UNL     1      -0.024   0.432   0.000  1.00  0.00    -0.163 NA
HETATM   10  H   UNL     1      -2.677   2.758  -0.000  1.00  0.00     0.160 HD
HETATM   11  H   UNL     1      -4.428   2.704  -0.000  1.00  0.00     0.160 HD
ENDROOT
TORSDOF 0
