REMARK  4 active torsions:
REMARK  status: ('A' for Active; 'I' for Inactive)
REMARK    1  A    between atoms: N_4  and  C_5 
REMARK    2  A    between atoms: C_5  and  C_6 
REMARK       I    between atoms: N_10  and  C_11 
REMARK    3  A    between atoms: C_11  and  O_13 
REMARK    4  A    between atoms: O_13  and  C_14 
ROOT
HETATM    1  C   UNL     1      -2.205   1.059  -1.366  1.00  0.00     0.087 C 
HETATM    2  C   UNL     1      -2.729  -0.304  -0.875  1.00  0.00     0.023 C 
HETATM    3  C   UNL     1      -3.782  -0.705  -1.916  1.00  0.00     0.017 C 
HETATM    4  C   UNL     1      -3.988   0.547  -2.769  1.00  0.00     0.101 C 
HETATM    5  N   UNL     1      -3.416   1.622  -1.967  1.00  0.00    -0.222 NA
HETATM    6  C   UNL     1      -4.258   2.365  -1.138  1.00  0.00     0.341 C 
HETATM    7  O   UNL     1      -3.869   3.245  -0.382  1.00  0.00    -0.245 OA
ENDROOT
BRANCH   1   8
HETATM    8  C   UNL     1      -1.395   1.853  -0.323  1.00  0.00     0.166 C 
BRANCH   8   9
HETATM    9  N   UNL     1      -0.327   1.024   0.229  1.00  0.00    -0.282 N 
HETATM   10  C   UNL     1       0.526   0.225  -0.489  1.00  0.00     0.136 C 
HETATM   11  C   UNL     1       0.680  -0.877   0.327  1.00  0.00     0.065 C 
HETATM   12  C   UNL     1       1.146  -2.233  -0.016  1.00  0.00     0.073 C 
HETATM   13  N   UNL     1       0.152  -0.601   1.558  1.00  0.00    -0.164 NA
HETATM   14  N   UNL     1      -0.431   0.588   1.498  1.00  0.00     0.004 NA
ENDBRANCH   8   9
ENDBRANCH   1   8
BRANCH   6  15
HETATM   15  O   UNL     1      -5.523   1.879  -1.164  1.00  0.00    -0.298 OA
BRANCH  15  16
HETATM   16  C   UNL     1      -6.398   1.988  -0.011  1.00  0.00     0.061 C 
HETATM   17  C   UNL     1      -7.519   0.986  -0.323  1.00  0.00     0.046 C 
HETATM   18  C   UNL     1      -5.697   1.541   1.277  1.00  0.00     0.046 C 
HETATM   19  C   UNL     1      -6.978   3.394   0.105  1.00  0.00     0.046 C 
ENDBRANCH  15  16
ENDBRANCH   6  15
TORSDOF 4
