REMARK  4 active torsions:
REMARK  status: ('A' for Active; 'I' for Inactive)
REMARK    1  A    between atoms: S_2  and  C_3 
REMARK    2  A    between atoms: C_3  and  C_6 
REMARK    3  A    between atoms: C_6  and  O_8 
REMARK    4  A    between atoms: C_6  and  C_9 
ROOT
HETATM    1  C   UNL     1       0.086  -2.942   0.163  1.00  0.00     0.189 C 
HETATM    2  C   UNL     1       1.385  -3.058  -0.621  1.00  0.00     0.077 C 
HETATM    3  N   UNL     1       2.348  -3.243  -1.236  1.00  0.00    -0.196 NA
ENDROOT
BRANCH   1   4
HETATM    4  S   UNL     1       0.025  -3.915   1.697  1.00  0.00    -0.151 SA
HETATM    5  C   UNL     1      -1.035  -5.250   1.033  1.00  0.00     0.091 C 
ENDBRANCH   1   4
BRANCH   1   6
HETATM    6  C   UNL     1      -0.866  -1.500   0.000  1.00  0.00     0.095 C 
HETATM    7  C   UNL     1      -1.866  -1.500   0.000  1.00  0.00     0.049 C 
BRANCH   6   8
HETATM    8  O   UNL     1      -1.224  -2.191  -1.570  1.00  0.00    -0.387 OA
HETATM    9  H   UNL     1      -1.960  -2.836  -1.487  1.00  0.00     0.210 HD
ENDBRANCH   6   8
BRANCH   6  10
HETATM   10  C   UNL     1       0.154  -0.616  -0.860  1.00  0.00     0.051 C 
HETATM   11  C   UNL     1       0.953  -0.015   0.080  1.00  0.00    -0.066 C 
HETATM   12  C   UNL     1       0.228   0.907   0.744  1.00  0.00     0.010 C 
HETATM   13  C   UNL     1       2.415  -0.184   0.236  1.00  0.00     0.044 C 
HETATM   14  C   UNL     1      -0.866   1.500   0.000  1.00  0.00    -0.062 C 
HETATM   15  C   UNL     1      -1.355   1.034  -1.228  1.00  0.00     0.004 C 
HETATM   16  C   UNL     1      -0.866   2.500   0.000  1.00  0.00     0.048 C 
HETATM   17  C   UNL     1      -0.558   0.125  -1.820  1.00  0.00    -0.008 C 
ENDBRANCH   6  10
ENDBRANCH   1   6
TORSDOF 4
