REMARK  5 active torsions:
REMARK  status: ('A' for Active; 'I' for Inactive)
REMARK    1  A    between atoms: N_1  and  C_2 
REMARK    2  A    between atoms: C_2  and  C_3 
REMARK    3  A    between atoms: C_6  and  C_7 
REMARK    4  A    between atoms: C_7  and  N_8 
REMARK    5  A    between atoms: N_8  and  C_9 
ROOT
HETATM    1  C   UNL     1      -0.315  -1.080  -0.338  1.00  0.00     0.019 C 
HETATM    2  C   UNL     1      -0.414   0.385   0.175  1.00  0.00     0.007 C 
HETATM    3  C   UNL     1       1.125   0.419   0.117  1.00  0.00     0.007 C 
HETATM    4  C   UNL     1       1.090  -1.118   0.361  1.00  0.00     0.009 C 
ENDROOT
BRANCH   4   5
HETATM    5  C   UNL     1       2.103  -2.021  -0.314  1.00  0.00     0.127 C 
BRANCH   5   6
HETATM    6  N   UNL     1       3.397  -1.823   0.303  1.00  0.00    -0.368 N 
HETATM    7  H   UNL     1       3.909  -2.627   0.628  1.00  0.00     0.161 HD
BRANCH   6   8
HETATM    8  C   UNL     1       4.216  -0.763   0.015  1.00  0.00     0.348 C 
HETATM    9  O   UNL     1       5.414  -0.770   0.266  1.00  0.00    -0.284 OA
ENDBRANCH   6   8
ENDBRANCH   5   6
ENDBRANCH   4   5
BRANCH   1  10
HETATM   10  C   UNL     1      -1.328  -2.114   0.131  1.00  0.00     0.271 C 
BRANCH  10  11
HETATM   11  N   UNL     1      -2.683  -1.585   0.045  1.00  0.00     0.078 N 
HETATM   12  H   UNL     1      -2.885  -1.276  -0.904  1.00  0.00     0.312 HD
HETATM   13  H   UNL     1      -3.352  -2.324   0.258  1.00  0.00     0.312 HD
ENDBRANCH  10  11
ENDBRANCH   1  10
TORSDOF 5
