REMARK  5 active torsions:
REMARK  status: ('A' for Active; 'I' for Inactive)
REMARK    1  A    between atoms: S_2  and  C_3 
REMARK    2  A    between atoms: C_3  and  C_4 
REMARK    3  A    between atoms: C_3  and  C_6 
REMARK    4  A    between atoms: C_4  and  O_5 
REMARK    5  A    between atoms: C_6  and  N_7 
ROOT
HETATM    1  N   UNL     1       0.092  -1.591  -0.382  1.00  0.00    -0.305 N 
HETATM    2  C   UNL     1       0.084  -2.699   0.436  1.00  0.00     0.215 C 
HETATM    3  N   UNL     1      -0.968  -3.389   0.729  1.00  0.00    -0.222 NA
HETATM    4  C   UNL     1      -2.185  -2.897   0.233  1.00  0.00     0.185 A 
HETATM    5  N   UNL     1      -3.288  -3.353   0.863  1.00  0.00    -0.238 NA
HETATM    6  C   UNL     1      -4.456  -2.768   0.487  1.00  0.00     0.138 A 
HETATM    7  C   UNL     1      -4.523  -1.784  -0.489  1.00  0.00     0.137 A 
HETATM    8  N   UNL     1      -3.432  -1.342  -1.148  1.00  0.00    -0.250 NA
HETATM    9  C   UNL     1      -2.267  -1.924  -0.752  1.00  0.00     0.172 A 
HETATM   10  C   UNL     1      -0.988  -1.367  -1.229  1.00  0.00     0.281 C 
HETATM   11  O   UNL     1      -0.911  -0.730  -2.273  1.00  0.00    -0.265 OA
ENDROOT
BRANCH   1  12
HETATM   12  C   UNL     1       1.308  -0.782  -0.499  1.00  0.00     0.150 C 
BRANCH  12  13
HETATM   13  C   UNL     1       1.090   0.739  -0.688  1.00  0.00     0.089 C 
BRANCH  13  14
HETATM   14  S   UNL     1       2.635   1.789  -0.655  1.00  0.00    -0.165 SA
HETATM   15  C   UNL     1       3.854   0.716   0.141  1.00  0.00     0.090 C 
ENDBRANCH  13  14
BRANCH  13  16
HETATM   16  C   UNL     1       0.080   1.331   0.319  1.00  0.00     0.180 C 
BRANCH  16  17
HETATM   17  O   UNL     1      -0.176   2.714   0.074  1.00  0.00    -0.400 OA
HETATM   18  H   UNL     1       0.681   3.119  -0.161  1.00  0.00     0.209 HD
ENDBRANCH  16  17
ENDBRANCH  13  16
ENDBRANCH  12  13
ENDBRANCH   1  12
TORSDOF 5
