REMARK  2 active torsions:
REMARK  status: ('A' for Active; 'I' for Inactive)
REMARK    1  A    between atoms: C_2  and  C_3 
REMARK    2  A    between atoms: C_5  and  S_6 
ROOT
HETATM    1  C   UNL     1       0.177  -0.853   0.194  1.00  0.00     0.173 A 
HETATM    2  N   UNL     1      -1.098  -0.905   0.501  1.00  0.00    -0.199 NA
HETATM    3  C   UNL     1      -1.442   0.418   0.534  1.00  0.00     0.216 A 
HETATM    4  N   UNL     1      -0.438   1.267   0.284  1.00  0.00    -0.099 NA
HETATM    5  O   UNL     1       0.646   0.421   0.048  1.00  0.00    -0.195 OA
ENDROOT
BRANCH   1   6
HETATM    6  C   UNL     1       1.156  -1.944  -0.019  1.00  0.00     0.084 C 
HETATM    7  C   UNL     1       0.487  -3.302  -0.161  1.00  0.00     0.013 C 
ENDBRANCH   1   6
BRANCH   3   8
HETATM    8  S   UNL     1      -3.058   0.928   0.938  1.00  0.00    -0.092 SA
HETATM    9  C   UNL     1      -3.234   2.454  -0.008  1.00  0.00     0.099 C 
ENDBRANCH   3   8
TORSDOF 2
