REMARK  12 active torsions:
REMARK  status: ('A' for Active; 'I' for Inactive)
REMARK    1  A    between atoms: C_2  and  C_4 
REMARK    2  A    between atoms: C_4  and  C_5 
REMARK    3  A    between atoms: C_5  and  C_7 
REMARK    4  A    between atoms: C_7  and  O_8 
REMARK    5  A    between atoms: C_7  and  C_9 
REMARK    6  A    between atoms: C_9  and  C_11 
REMARK    7  A    between atoms: C_11  and  C_12 
REMARK    8  A    between atoms: C_11  and  C_26 
REMARK    9  A    between atoms: C_12  and  C_13 
REMARK   10  A    between atoms: C_13  and  O_14 
REMARK   11  A    between atoms: O_14  and  C_15 
REMARK   12  A    between atoms: C_26  and  C_28 
ROOT
HETATM    1  C   UNL     1      -1.048   1.904   0.065  1.00  0.00     0.135 C 
ENDROOT
BRANCH   1   2
HETATM    2  C   UNL     1       0.000   3.000   0.000  1.00  0.00     0.174 C 
HETATM    3  O   UNL     1       1.114   2.618  -0.456  1.00  0.00    -0.294 OA
BRANCH   2   4
HETATM    4  C   UNL     1       0.000   4.000   0.000  1.00  0.00     0.258 C 
BRANCH   4   5
HETATM    5  C   UNL     1       0.691   4.407   1.421  1.00  0.00     0.169 C 
HETATM    6  O   UNL     1       0.861   3.705   2.413  1.00  0.00    -0.294 OA
BRANCH   5   7
HETATM    7  C   UNL     1       1.085   5.898   1.401  1.00  0.00     0.159 C 
BRANCH   7   8
HETATM    8  C   UNL     1       1.732   6.000   0.000  1.00  0.00     0.130 C 
HETATM    9  C   UNL     1       2.598   5.500   0.000  1.00  0.00     0.091 C 
HETATM   10  O   UNL     1       1.225   6.713  -0.866  1.00  0.00    -0.298 OA
ENDBRANCH   7   8
ENDBRANCH   5   7
ENDBRANCH   4   5
BRANCH   4  11
HETATM   11  O   UNL     1      -1.380   4.183   0.874  1.00  0.00    -0.380 OA
HETATM   12  H   UNL     1      -1.904   4.866   0.411  1.00  0.00     0.211 HD
ENDBRANCH   4  11
ENDBRANCH   2   4
ENDBRANCH   1   2
BRANCH   1  13
HETATM   13  C   UNL     1      -2.292   2.377  -0.799  1.00  0.00     0.047 C 
BRANCH  13  14
HETATM   14  C   UNL     1      -3.546   1.703  -0.277  1.00  0.00     0.177 C 
BRANCH  14  15
HETATM   15  O   UNL     1      -4.524   2.682   0.135  1.00  0.00    -0.348 OA
BRANCH  15  16
HETATM   16  C   UNL     1      -5.784   2.136   0.198  1.00  0.00     0.103 C 
HETATM   17  C   UNL     1      -6.052   0.807   0.536  1.00  0.00     0.122 C 
HETATM   18  C   UNL     1      -7.270   0.213   0.241  1.00  0.00    -0.004 C 
HETATM   19  O   UNL     1      -5.097   0.070   1.260  1.00  0.00    -0.258 OA
HETATM   20  C   UNL     1      -8.324   1.030  -0.162  1.00  0.00     0.012 C 
HETATM   21  C   UNL     1      -7.377  -1.268   0.350  1.00  0.00     0.166 C 
HETATM   22  C   UNL     1      -8.124   2.407  -0.327  1.00  0.00     0.003 C 
HETATM   23  C   UNL     1      -6.845   2.953  -0.185  1.00  0.00     0.040 C 
HETATM   24  N   UNL     1      -6.097  -1.900   0.512  1.00  0.00    -0.332 N 
HETATM   25  C   UNL     1      -5.103  -1.315   1.244  1.00  0.00     0.366 C 
HETATM   26  H   UNL     1      -6.029  -2.908   0.528  1.00  0.00     0.165 HD
HETATM   27  O   UNL     1      -4.285  -1.981   1.862  1.00  0.00    -0.238 OA
ENDBRANCH  15  16
ENDBRANCH  14  15
ENDBRANCH  13  14
ENDBRANCH   1  13
BRANCH   1  28
HETATM   28  C   UNL     1      -0.633   0.506  -0.481  1.00  0.00     0.174 C 
HETATM   29  O   UNL     1      -1.273   0.090  -1.465  1.00  0.00    -0.291 OA
BRANCH  28  30
HETATM   30  C   UNL     1       0.535  -0.342   0.075  1.00  0.00     0.060 C 
HETATM   31  C   UNL     1       0.665  -1.729  -0.275  1.00  0.00     0.185 C 
HETATM   32  C   UNL     1       1.956  -2.283  -0.085  1.00  0.00     0.056 C 
HETATM   33  O   UNL     1      -0.265  -2.482  -0.722  1.00  0.00    -0.287 OA
HETATM   34  C   UNL     1       3.040  -1.580   0.440  1.00  0.00     0.004 C 
HETATM   35  C   UNL     1       2.838  -0.302   0.916  1.00  0.00     0.001 C 
HETATM   36  C   UNL     1       1.577   0.283   0.791  1.00  0.00     0.019 C 
ENDBRANCH  28  30
ENDBRANCH   1  28
TORSDOF 12
