REMARK  2 active torsions:
REMARK  status: ('A' for Active; 'I' for Inactive)
REMARK    1  A    between atoms: C_2  and  O_3 
REMARK    2  A    between atoms: O_3  and  C_4 
ROOT
HETATM    1  C   UNL     1       1.050  -0.558  -0.321  1.00  0.00     0.165 C 
HETATM    2  C   UNL     1       0.470  -1.850   0.240  1.00  0.00     0.035 C 
HETATM    3  C   UNL     1      -1.030  -1.722   0.013  1.00  0.00     0.006 C 
HETATM    4  C   UNL     1      -1.331  -0.224   0.031  1.00  0.00     0.040 C 
HETATM    5  C   UNL     1       0.016   0.479   0.105  1.00  0.00     0.199 C 
HETATM    6  F   UNL     1       0.030   1.537  -0.746  1.00  0.00    -0.247 F 
ENDROOT
BRANCH   1   7
HETATM    7  O   UNL     1       2.316  -0.247   0.279  1.00  0.00    -0.320 OA
BRANCH   7   8
HETATM    8  C   UNL     1       3.372  -0.953  -0.190  1.00  0.00     0.398 C 
HETATM    9  O   UNL     1       3.346  -1.820  -1.049  1.00  0.00    -0.276 OA
ENDBRANCH   7   8
ENDBRANCH   1   7
TORSDOF 2
