REMARK  3 active torsions:
REMARK  status: ('A' for Active; 'I' for Inactive)
REMARK    1  A    between atoms: C_6  and  C_7 
REMARK    2  A    between atoms: C_7  and  O_9 
REMARK    3  A    between atoms: O_9  and  C_10 
ROOT
HETATM    1  C   UNL     1      -1.210   2.682  -0.039  1.00  0.00     0.319 C 
HETATM    2  O   UNL     1      -0.143   3.287   0.041  1.00  0.00    -0.257 OA
ENDROOT
BRANCH   1   3
HETATM    3  C   UNL     1      -1.196   1.211  -0.280  1.00  0.00     0.155 A 
HETATM    4  N   UNL     1      -2.278   0.634  -0.848  1.00  0.00    -0.144 NA
HETATM    5  N   UNL     1      -2.321  -0.722  -0.999  1.00  0.00    -0.161 NA
HETATM    6  C   UNL     1      -1.268  -1.468  -0.601  1.00  0.00     0.147 A 
HETATM    7  C   UNL     1      -0.127  -0.917  -0.040  1.00  0.00    -0.040 A 
HETATM    8  C   UNL     1       1.042  -1.769   0.341  1.00  0.00     0.050 C 
HETATM    9  C   UNL     1      -0.089   0.469   0.106  1.00  0.00     0.048 A 
ENDBRANCH   1   3
BRANCH   1  10
HETATM   10  O   UNL     1      -2.403   3.333   0.106  1.00  0.00    -0.268 OA
BRANCH  10  11
HETATM   11  C   UNL     1      -3.637   2.713   0.388  1.00  0.00     0.147 C 
HETATM   12  C   UNL     1      -4.815   3.106  -0.434  1.00  0.00     0.187 C 
HETATM   13  C   UNL     1      -6.140   2.494  -0.063  1.00  0.00     0.112 C 
HETATM   14  O   UNL     1      -4.715   3.947  -1.324  1.00  0.00    -0.290 OA
HETATM   15  C   UNL     1      -5.873   1.118   0.511  1.00  0.00     0.182 C 
HETATM   16  O   UNL     1      -5.022   1.192   1.664  1.00  0.00    -0.360 OA
HETATM   17  C   UNL     1      -3.853   1.868   1.408  1.00  0.00     0.175 C 
ENDBRANCH  10  11
ENDBRANCH   1  10
TORSDOF 3
