REMARK  5 active torsions:
REMARK  status: ('A' for Active; 'I' for Inactive)
REMARK    1  A    between atoms: C_7  and  N_8 
REMARK    2  A    between atoms: N_8  and  CA_9 
REMARK    3  A    between atoms: CA_9  and  C_10 
REMARK    4  A    between atoms: CA_9  and  C_12 
REMARK    5  A    between atoms: C_12  and  OXT_14 
ROOT
HETATM    1  N   UNL     1       0.984  -0.244  -0.298  1.00  0.00     0.113 N 
HETATM    2  H   UNL     1       0.832  -1.238  -0.038  1.00  0.00     0.318 HD
ENDROOT
BRANCH   1   3
HETATM    3  C   UNL     1      -0.324   0.368   0.112  1.00  0.00     0.314 C 
HETATM    4  C   UNL     1      -1.400  -0.723  -0.045  1.00  0.00     0.164 C 
HETATM    5  O   UNL     1      -1.084  -1.919  -0.057  1.00  0.00    -0.295 OA
HETATM    6  C   UNL     1      -2.848  -0.313  -0.086  1.00  0.00     0.107 C 
HETATM    7  C   UNL     1      -2.956   1.187   0.044  1.00  0.00     0.175 C 
HETATM    8  O   UNL     1      -2.127   1.767  -0.953  1.00  0.00    -0.388 OA
HETATM    9  C   UNL     1      -0.731   1.629  -0.670  1.00  0.00     0.211 C 
ENDBRANCH   1   3
BRANCH   1  10
HETATM   10  CA  UNL     1       2.156   0.230   0.510  1.00  0.00     0.331 C 
BRANCH  10  11
HETATM   11  C   UNL     1       3.002   1.357  -0.107  1.00  0.00     0.161 C 
HETATM   12 CL   UNL     1       2.234   2.954  -0.037  1.00  0.00    -0.128 Cl
ENDBRANCH  10  11
BRANCH  10  13
HETATM   13  C   UNL     1       3.152  -0.939   0.607  1.00  0.00     0.175 C 
HETATM   14  O   UNL     1       3.955  -1.084   1.517  1.00  0.00    -0.648 OA
BRANCH  13  15
HETATM   15  OXT UNL     1       3.096  -1.766  -0.470  1.00  0.00    -0.775 OA
HETATM   16  HXT UNL     1       2.412  -1.457  -1.103  1.00  0.00     0.167 HD
ENDBRANCH  13  15
ENDBRANCH  10  13
ENDBRANCH   1  10
TORSDOF 5
