REMARK  2 active torsions:
REMARK  status: ('A' for Active; 'I' for Inactive)
REMARK    1  A    between atoms: C_2  and  C_3 
REMARK    2  A    between atoms: N_6  and  C_7 
ROOT
HETATM    1  C   UNL     1       1.620   0.558   0.236  1.00  0.00     0.037 C 
HETATM    2  C   UNL     1       2.265  -0.740  -0.236  1.00  0.00     0.040 C 
HETATM    3  C   UNL     1       1.161  -1.752   0.021  1.00  0.00     0.274 C 
HETATM    4  N   UNL     1      -0.051  -1.068  -0.441  1.00  0.00     0.103 N 
HETATM    5  C   UNL     1       0.153   0.376  -0.193  1.00  0.00     0.282 C 
ENDROOT
BRANCH   4   6
HETATM    6  C   UNL     1      -1.301  -1.584   0.162  1.00  0.00     0.315 C 
HETATM    7  C   UNL     1      -2.556  -0.896  -0.412  1.00  0.00     0.164 C 
HETATM    8  C   UNL     1      -3.870  -1.433   0.102  1.00  0.00     0.107 C 
HETATM    9  O   UNL     1      -2.548   0.092  -1.149  1.00  0.00    -0.295 OA
HETATM   10  C   UNL     1      -3.883  -2.934  -0.085  1.00  0.00     0.175 C 
HETATM   11  O   UNL     1      -2.745  -3.526   0.543  1.00  0.00    -0.388 OA
HETATM   12  C   UNL     1      -1.522  -3.089  -0.069  1.00  0.00     0.211 C 
ENDBRANCH   4   6
BRANCH   1  13
HETATM   13  C   UNL     1       2.241   1.838  -0.252  1.00  0.00    -0.030 C 
HETATM   14  C   UNL     1       3.556   2.071  -0.356  1.00  0.00     0.007 C 
ENDBRANCH   1  13
TORSDOF 2
