REMARK  14 active torsions:
REMARK  status: ('A' for Active; 'I' for Inactive)
REMARK    1  A    between atoms: C_2  and  C_4 
REMARK    2  A    between atoms: C_4  and  C_5 
REMARK    3  A    between atoms: C_5  and  C_7 
REMARK    4  A    between atoms: C_7  and  O_8 
REMARK    5  A    between atoms: C_7  and  C_9 
REMARK    6  A    between atoms: C_9  and  C_11 
REMARK    7  A    between atoms: C_11  and  C_12 
REMARK    8  A    between atoms: C_11  and  C_15 
REMARK    9  A    between atoms: C_12  and  C_13 
REMARK   10  A    between atoms: C_13  and  O_14 
REMARK   11  A    between atoms: C_15  and  C_25 
REMARK   12  A    between atoms: C_16  and  C_17 
REMARK   13  A    between atoms: C_22  and  C_23 
REMARK   14  A    between atoms: C_30  and  O_31 
ROOT
HETATM    1  C   UNL     1      -1.422   0.835  -0.804  1.00  0.00    -0.031 C 
HETATM    2  C   UNL     1      -2.508   0.210  -1.343  1.00  0.00     0.042 C 
ENDROOT
BRANCH   1   3
HETATM    3  C   UNL     1      -1.360   2.179   0.027  1.00  0.00     0.094 C 
BRANCH   3   4
HETATM    4  C   UNL     1       0.000   3.000   0.000  1.00  0.00     0.171 C 
HETATM    5  O   UNL     1       1.046   2.377   0.286  1.00  0.00    -0.294 OA
BRANCH   4   6
HETATM    6  C   UNL     1       0.000   4.000   0.000  1.00  0.00     0.257 C 
BRANCH   6   7
HETATM    7  C   UNL     1       0.427   4.534   1.471  1.00  0.00     0.169 C 
HETATM    8  O   UNL     1       0.046   4.049   2.531  1.00  0.00    -0.294 OA
BRANCH   7   9
HETATM    9  C   UNL     1       1.055   5.937   1.402  1.00  0.00     0.159 C 
BRANCH   9  10
HETATM   10  C   UNL     1       1.732   6.000   0.000  1.00  0.00     0.130 C 
HETATM   11  C   UNL     1       2.598   5.500   0.000  1.00  0.00     0.091 C 
HETATM   12  O   UNL     1       1.222   6.715  -0.867  1.00  0.00    -0.298 OA
ENDBRANCH   9  10
ENDBRANCH   7   9
ENDBRANCH   6   7
BRANCH   6  13
HETATM   13  O   UNL     1       0.525   4.028  -1.368  1.00  0.00    -0.380 OA
HETATM   14  H   UNL     1       0.193   4.819  -1.840  1.00  0.00     0.211 HD
ENDBRANCH   6  13
ENDBRANCH   4   6
ENDBRANCH   3   4
BRANCH   3  15
HETATM   15  C   UNL     1      -2.616   3.093  -0.163  1.00  0.00     0.043 C 
BRANCH  15  16
HETATM   16  C   UNL     1      -2.760   4.440   0.539  1.00  0.00     0.165 C 
BRANCH  16  17
HETATM   17  O   UNL     1      -4.102   4.894   0.406  1.00  0.00    -0.401 OA
HETATM   18  H   UNL     1      -4.158   5.771   0.836  1.00  0.00     0.209 HD
ENDBRANCH  16  17
ENDBRANCH  15  16
ENDBRANCH   3  15
ENDBRANCH   1   3
BRANCH   1  19
HETATM   19  C   UNL     1      -0.171   0.018  -0.875  1.00  0.00     0.004 C 
HETATM   20  C   UNL     1      -0.043  -1.221  -0.205  1.00  0.00     0.076 C 
HETATM   21  C   UNL     1       1.190  -1.871  -0.085  1.00  0.00     0.037 C 
HETATM   22  C   UNL     1       2.323  -1.309  -0.661  1.00  0.00     0.003 C 
HETATM   23  C   UNL     1       2.203  -0.152  -1.426  1.00  0.00     0.001 C 
HETATM   24  C   UNL     1       0.959   0.477  -1.567  1.00  0.00     0.015 C 
BRANCH  20  25
HETATM   25  O   UNL     1      -1.146  -1.830   0.339  1.00  0.00    -0.360 OA
HETATM   26  H   UNL     1      -0.971  -2.788   0.323  1.00  0.00     0.217 HD
ENDBRANCH  20  25
ENDBRANCH   1  19
BRANCH   2  27
HETATM   27  C   UNL     1      -3.938   0.528  -1.187  1.00  0.00     0.082 C 
HETATM   28  C   UNL     1      -4.772  -0.119  -0.256  1.00  0.00     0.076 C 
HETATM   29  N   UNL     1      -5.990   0.403   0.073  1.00  0.00    -0.261 NA
HETATM   30  C   UNL     1      -6.368   1.517  -0.589  1.00  0.00     0.136 C 
HETATM   31  C   UNL     1      -5.592   2.078  -1.580  1.00  0.00     0.136 C 
HETATM   32  N   UNL     1      -4.377   1.586  -1.920  1.00  0.00    -0.258 NA
BRANCH  28  33
HETATM   33  C   UNL     1      -4.321  -1.363   0.467  1.00  0.00     0.176 C 
HETATM   34 CL   UNL     1      -5.678  -2.430   0.938  1.00  0.00    -0.124 Cl
ENDBRANCH  28  33
ENDBRANCH   2  27
TORSDOF 14
