REMARK  3 active torsions:
REMARK  status: ('A' for Active; 'I' for Inactive)
REMARK    1  A    between atoms: S_2  and  C_3 
REMARK       I    between atoms: C_3  and  N_5 
REMARK    2  A    between atoms: N_5  and  C_6 
REMARK    3  A    between atoms: C_6  and  C_8 
ROOT
HETATM    1  C   UNL     1      -0.757   0.201  -0.046  1.00  0.00    -0.025 A 
HETATM    2  C   UNL     1      -2.034   0.832  -0.009  1.00  0.00     0.010 A 
HETATM    3  C   UNL     1      -2.179   2.214   0.037  1.00  0.00     0.002 A 
HETATM    4  C   UNL     1      -1.050   3.014   0.047  1.00  0.00     0.012 A 
HETATM    5  C   UNL     1       0.231   2.455  -0.018  1.00  0.00    -0.025 A 
HETATM    6  C   UNL     1       1.329   3.334  -0.012  1.00  0.00     0.012 A 
HETATM    7  C   UNL     1       2.635   2.865  -0.102  1.00  0.00     0.001 A 
HETATM    8  C   UNL     1       2.852   1.507  -0.208  1.00  0.00     0.001 A 
HETATM    9  C   UNL     1       1.767   0.621  -0.202  1.00  0.00     0.013 A 
HETATM   10  C   UNL     1       0.415   1.043  -0.088  1.00  0.00    -0.018 A 
ENDROOT
BRANCH   1  11
HETATM   11  C   UNL     1      -0.829  -1.336  -0.010  1.00  0.00     0.115 C 
HETATM   12  C   UNL     1       0.450  -2.158  -0.148  1.00  0.00     0.037 C 
BRANCH  11  13
HETATM   13  N   UNL     1      -1.493  -1.745   1.236  1.00  0.00    -0.344 N 
HETATM   14  C   UNL     1      -2.058  -2.946   1.560  1.00  0.00     0.280 C 
HETATM   15  O   UNL     1      -2.278  -3.243   2.727  1.00  0.00    -0.260 OA
HETATM   16  H   UNL     1      -1.262  -1.205   2.060  1.00  0.00     0.164 HD
BRANCH  14  17
HETATM   17  S   UNL     1      -2.492  -4.029   0.262  1.00  0.00    -0.074 SA
HETATM   18  C   UNL     1      -3.973  -3.179  -0.312  1.00  0.00     0.100 C 
ENDBRANCH  14  17
ENDBRANCH  11  13
ENDBRANCH   1  11
TORSDOF 3
