REMARK  5 active torsions:
REMARK  status: ('A' for Active; 'I' for Inactive)
REMARK    1  A    between atoms: C_3  and  N_4 
REMARK    2  A    between atoms: N_4  and  C_6 
REMARK    3  A    between atoms: C_6  and  C_8 
REMARK    4  A    between atoms: C_8  and  C_9 
REMARK    5  A    between atoms: C_12  and  N_13 
ROOT
HETATM    1  C   UNL     1       5.806   2.060   1.577  1.00  0.00     0.014 C 
HETATM    2  C   UNL     1       4.853   1.454   1.175  1.00  0.00    -0.098 C 
HETATM    3  C   UNL     1       3.702   0.696   0.616  1.00  0.00     0.210 C 
ENDROOT
BRANCH   3   4
HETATM    4  N   UNL     1       2.598   1.500   0.000  1.00  0.00    -0.403 N 
HETATM    5  C   UNL     1       2.598   2.500   0.000  1.00  0.00     0.144 C 
BRANCH   4   6
HETATM    6  C   UNL     1       2.096   0.849  -1.239  1.00  0.00     0.079 C 
HETATM    7  C   UNL     1       0.928   1.608  -1.924  1.00  0.00     0.032 C 
BRANCH   6   8
HETATM    8  C   UNL     1       1.769  -0.656  -1.096  1.00  0.00     0.063 C 
BRANCH   8   9
HETATM    9  C   UNL     1       0.912  -1.152   0.044  1.00  0.00    -0.056 C 
HETATM   10  C   UNL     1      -0.080  -0.384   0.664  1.00  0.00     0.009 C 
HETATM   11  C   UNL     1      -1.093  -1.000   1.396  1.00  0.00     0.032 C 
HETATM   12  C   UNL     1      -1.109  -2.394   1.491  1.00  0.00     0.054 C 
HETATM   13  C   UNL     1       0.007  -3.136   1.095  1.00  0.00     0.032 C 
HETATM   14  C   UNL     1       1.008  -2.514   0.362  1.00  0.00     0.009 C 
BRANCH  12  15
HETATM   15  N   UNL     1      -2.346  -3.053   1.699  1.00  0.00    -0.247 N 
HETATM   16  N   UNL     1      -3.488  -2.387   1.998  1.00  0.00     0.009 NA
HETATM   17  N   UNL     1      -4.511  -3.101   1.545  1.00  0.00    -0.163 NA
HETATM   18  C   UNL     1      -4.015  -4.265   1.029  1.00  0.00     0.065 C 
HETATM   19  C   UNL     1      -2.662  -4.325   1.270  1.00  0.00     0.142 C 
HETATM   20  C   UNL     1      -4.851  -5.185   0.237  1.00  0.00     0.073 C 
ENDBRANCH  12  15
ENDBRANCH   8   9
ENDBRANCH   6   8
ENDBRANCH   4   6
ENDBRANCH   3   4
TORSDOF 5
