REMARK  2 active torsions:
REMARK  status: ('A' for Active; 'I' for Inactive)
REMARK    1  A    between atoms: C_2  and  O_3 
REMARK    2  A    between atoms: O_3  and  C_4 
ROOT
HETATM    1  C   UNL     1      -0.326  -0.722   0.349  1.00  0.00     0.160 C 
HETATM    2  C   UNL     1      -0.107   0.706  -0.203  1.00  0.00     0.042 C 
HETATM    3  C   UNL     1       1.406   0.627   0.072  1.00  0.00     0.040 C 
HETATM    4  C   UNL     1       1.177  -0.867   0.142  1.00  0.00    -0.048 C 
HETATM    5  C   UNL     1       1.996  -1.941   0.065  1.00  0.00    -0.075 C 
HETATM    6  C   UNL     1       3.487  -2.094  -0.132  1.00  0.00     0.034 C 
HETATM    7  C   UNL     1       3.256  -3.585   0.165  1.00  0.00     0.009 C 
HETATM    8  C   UNL     1       1.729  -3.429   0.120  1.00  0.00     0.034 C 
ENDROOT
BRANCH   1   9
HETATM    9  O   UNL     1      -1.100  -1.622  -0.465  1.00  0.00    -0.319 OA
BRANCH   9  10
HETATM   10  C   UNL     1      -2.439  -1.519  -0.301  1.00  0.00     0.398 C 
HETATM   11  O   UNL     1      -3.022  -0.758   0.455  1.00  0.00    -0.276 OA
ENDBRANCH   9  10
ENDBRANCH   1   9
TORSDOF 2
