REMARK  4 active torsions:
REMARK  status: ('A' for Active; 'I' for Inactive)
REMARK    1  A    between atoms: S_2  and  C_3 
REMARK    2  A    between atoms: C_3  and  N_5 
REMARK    3  A    between atoms: N_5  and  C_6 
REMARK    4  A    between atoms: C_6  and  C_7 
ROOT
HETATM    1  C   UNL     1      -0.300   0.789   0.141  1.00  0.00     0.161 C 
ENDROOT
BRANCH   1   2
HETATM    2  N   UNL     1       0.829   1.678   0.374  1.00  0.00    -0.371 N 
HETATM    3  H   UNL     1       1.419   1.463   1.167  1.00  0.00     0.161 HD
BRANCH   2   4
HETATM    4  C   UNL     1       0.980   2.942  -0.129  1.00  0.00     0.134 C 
HETATM    5  S   UNL     1       0.063   3.686  -1.303  1.00  0.00    -0.053 SA
BRANCH   4   6
HETATM    6  S   UNL     1       2.307   3.745   0.681  1.00  0.00    -0.105 SA
HETATM    7  C   UNL     1       3.695   3.048  -0.240  1.00  0.00     0.098 C 
ENDBRANCH   4   6
ENDBRANCH   2   4
ENDBRANCH   1   2
BRANCH   1   8
HETATM    8  C   UNL     1       0.085  -0.663   0.073  1.00  0.00    -0.023 A 
HETATM    9  C   UNL     1      -0.878  -1.637   0.329  1.00  0.00     0.124 A 
HETATM   10  N   UNL     1      -0.663  -2.969   0.243  1.00  0.00    -0.273 NA
HETATM   11  C   UNL     1       0.572  -3.360  -0.133  1.00  0.00     0.116 A 
HETATM   12  C   UNL     1       1.597  -2.480  -0.429  1.00  0.00     0.020 A 
HETATM   13  C   UNL     1       1.346  -1.112  -0.332  1.00  0.00     0.012 A 
ENDBRANCH   1   8
TORSDOF 4
