REMARK  3 active torsions:
REMARK  status: ('A' for Active; 'I' for Inactive)
REMARK    1  A    between atoms: N_4  and  C_5 
REMARK    2  A    between atoms: C_8  and  C_9 
REMARK       I    between atoms: C_9  and  N_11 
REMARK    3  A    between atoms: N_11  and  N_12 
ROOT
HETATM    1  C   UNL     1      -2.679  -1.890   0.280  1.00  0.00     0.054 A 
HETATM    2  C   UNL     1      -2.689  -3.221   0.723  1.00  0.00     0.032 A 
HETATM    3  C   UNL     1      -3.887  -3.937   0.762  1.00  0.00     0.019 A 
HETATM    4  C   UNL     1      -5.074  -3.336   0.333  1.00  0.00     0.033 A 
HETATM    5  C   UNL     1      -5.080  -1.993  -0.055  1.00  0.00     0.019 A 
HETATM    6  C   UNL     1      -3.885  -1.268  -0.081  1.00  0.00     0.032 A 
ENDROOT
BRANCH   4   7
HETATM    7  C   UNL     1      -6.343  -4.099   0.298  1.00  0.00     0.265 C 
HETATM    8  O   UNL     1      -7.364  -3.601   0.762  1.00  0.00    -0.266 OA
HETATM    9  N   UNL     1      -6.358  -5.366  -0.275  1.00  0.00    -0.290 N 
HETATM   10  H   UNL     1      -7.292  -5.777  -0.321  1.00  0.00     0.183 HD
BRANCH   9  11
HETATM   11  N   UNL     1      -5.387  -5.850  -1.177  1.00  0.00    -0.247 NA
HETATM   12  H   UNL     1      -4.633  -6.293  -0.651  1.00  0.00     0.143 HD
HETATM   13  H   UNL     1      -4.972  -5.070  -1.694  1.00  0.00     0.143 HD
ENDBRANCH   9  11
ENDBRANCH   4   7
BRANCH   1  14
HETATM   14  N   UNL     1      -1.459  -1.173   0.186  1.00  0.00    -0.247 N 
HETATM   15  C   UNL     1      -0.176  -1.646   0.337  1.00  0.00     0.142 A 
HETATM   16  C   UNL     1       0.632  -0.551   0.146  1.00  0.00     0.065 A 
HETATM   17  C   UNL     1       2.103  -0.457   0.178  1.00  0.00     0.073 C 
HETATM   18  N   UNL     1      -0.148   0.536  -0.126  1.00  0.00    -0.163 NA
HETATM   19  N   UNL     1      -1.416   0.147  -0.116  1.00  0.00     0.009 NA
ENDBRANCH   1  14
TORSDOF 3
