REMARK  3 active torsions:
REMARK  status: ('A' for Active; 'I' for Inactive)
REMARK    1  A    between atoms: C_8  and  C_9 
REMARK    2  A    between atoms: C_9  and  N_10 
REMARK    3  A    between atoms: C_14  and  O_15 
ROOT
HETATM    1  C   UNL     1       0.669   1.907  -0.014  1.00  0.00     0.145 C 
ENDROOT
BRANCH   1   2
HETATM    2  C   UNL     1       1.947   1.152  -0.215  1.00  0.00     0.004 C 
HETATM    3  C   UNL     1       2.370   0.066   0.481  1.00  0.00    -0.006 C 
HETATM    4  C   UNL     1       3.702  -0.578   0.338  1.00  0.00     0.199 C 
HETATM    5  C   UNL     1       1.484  -0.717   1.430  1.00  0.00     0.069 C 
HETATM    6  O   UNL     1       4.613   0.232   0.008  1.00  0.00    -0.286 OA
HETATM    7  C   UNL     1       3.795  -1.887   0.650  1.00  0.00     0.189 C 
HETATM    8  O   UNL     1       2.799  -2.746   1.054  1.00  0.00    -0.359 OA
HETATM    9  C   UNL     1       1.497  -2.164   0.941  1.00  0.00     0.179 C 
ENDBRANCH   1   2
BRANCH   1  10
HETATM   10  N   UNL     1      -0.545   1.550  -0.779  1.00  0.00    -0.407 N 
HETATM   11  C   UNL     1      -0.665   0.149  -1.190  1.00  0.00     0.148 C 
HETATM   12  C   UNL     1      -1.972  -0.621  -0.913  1.00  0.00     0.135 C 
HETATM   13  C   UNL     1      -2.747  -0.014   0.243  1.00  0.00     0.035 C 
HETATM   14  C   UNL     1      -3.017   1.435  -0.101  1.00  0.00     0.022 C 
HETATM   15  C   UNL     1      -1.717   2.228  -0.218  1.00  0.00     0.117 C 
BRANCH  12  16
HETATM   16  O   UNL     1      -1.693  -1.991  -0.618  1.00  0.00    -0.394 OA
HETATM   17  H   UNL     1      -2.521  -2.412  -0.337  1.00  0.00     0.210 HD
ENDBRANCH  12  16
ENDBRANCH   1  10
TORSDOF 3
