REMARK  8 active torsions:
REMARK  status: ('A' for Active; 'I' for Inactive)
REMARK    1  A    between atoms: C_7  and  O_8 
REMARK    2  A    between atoms: O_8  and  C_9 
REMARK    3  A    between atoms: C_9  and  C_10 
REMARK    4  A    between atoms: C_9  and  C_12 
REMARK    5  A    between atoms: C_10  and  O_11 
REMARK    6  A    between atoms: C_12  and  O_13 
REMARK    7  A    between atoms: O_13  and  C_14 
REMARK    8  A    between atoms: C_14  and  C_15 
ROOT
HETATM    1  C   UNL     1       1.880   2.492  -0.033  1.00  0.00     0.176 C 
ENDROOT
BRANCH   1   2
HETATM    2  O   UNL     1       2.917   1.816   0.684  1.00  0.00    -0.338 OA
BRANCH   2   3
HETATM    3  C   UNL     1       3.246   0.509   0.364  1.00  0.00     0.119 C 
HETATM    4  C   UNL     1       4.466  -0.051   0.975  1.00  0.00     0.226 C 
HETATM    5  O   UNL     1       5.029   0.717   1.807  1.00  0.00    -0.283 OA
HETATM    6  C   UNL     1       4.858  -1.272   0.561  1.00  0.00     0.192 C 
HETATM    7  O   UNL     1       4.227  -2.094  -0.331  1.00  0.00    -0.355 OA
HETATM    8  C   UNL     1       2.893  -1.715  -0.679  1.00  0.00     0.205 C 
HETATM    9  C   UNL     1       2.534  -0.288  -0.447  1.00  0.00     0.040 C 
ENDBRANCH   2   3
ENDBRANCH   1   2
BRANCH   1  10
HETATM   10  C   UNL     1       2.159   3.992   0.141  1.00  0.00     0.198 C 
BRANCH  10  11
HETATM   11  O   UNL     1       3.432   4.333  -0.415  1.00  0.00    -0.398 OA
HETATM   12  H   UNL     1       4.043   3.643  -0.068  1.00  0.00     0.209 HD
ENDBRANCH  10  11
ENDBRANCH   1  10
BRANCH   1  13
HETATM   13  C   UNL     1       0.489   2.155   0.529  1.00  0.00     0.202 C 
BRANCH  13  14
HETATM   14  O   UNL     1      -0.502   2.497  -0.451  1.00  0.00    -0.384 OA
BRANCH  14  15
HETATM   15  C   UNL     1      -1.825   2.062  -0.141  1.00  0.00     0.208 C 
BRANCH  15  16
HETATM   16  C   UNL     1      -2.038   0.562  -0.163  1.00  0.00    -0.011 C 
HETATM   17  C   UNL     1      -1.401  -0.312  -1.057  1.00  0.00     0.042 C 
HETATM   18  C   UNL     1      -1.494  -1.698  -0.882  1.00  0.00     0.026 C 
HETATM   19 CL   UNL     1      -0.575   0.246  -2.468  1.00  0.00    -0.084 Cl
HETATM   20  C   UNL     1      -2.342  -2.230   0.089  1.00  0.00     0.025 C 
HETATM   21  C   UNL     1      -3.112  -1.371   0.865  1.00  0.00     0.034 C 
HETATM   22  C   UNL     1      -2.951   0.011   0.759  1.00  0.00     0.034 C 
HETATM   23 CL   UNL     1      -4.282  -2.016   1.949  1.00  0.00    -0.084 Cl
ENDBRANCH  15  16
ENDBRANCH  14  15
ENDBRANCH  13  14
ENDBRANCH   1  13
TORSDOF 8
