REMARK  7 active torsions:
REMARK  status: ('A' for Active; 'I' for Inactive)
REMARK    1  A    between atoms: C_2  and  C_3 
REMARK    2  A    between atoms: C_3  and  C_4 
REMARK    3  A    between atoms: C_4  and  O_5 
REMARK    4  A    between atoms: O_5  and  C_6 
REMARK    5  A    between atoms: C_9  and  N_10 
REMARK    6  A    between atoms: N_10  and  C_11 
REMARK    7  A    between atoms: C_11  and  S_13 
ROOT
HETATM    1  C   UNL     1       0.379   0.048  -1.663  1.00  0.00     0.068 A 
HETATM    2  C   UNL     1       0.268  -1.266  -2.122  1.00  0.00     0.039 A 
HETATM    3  C   UNL     1      -0.798  -2.061  -1.706  1.00  0.00     0.032 A 
HETATM    4  C   UNL     1      -1.788  -1.506  -0.904  1.00  0.00     0.033 A 
HETATM    5  C   UNL     1      -1.678  -0.191  -0.440  1.00  0.00     0.032 A 
HETATM    6  C   UNL     1      -0.589   0.587  -0.820  1.00  0.00     0.039 A 
ENDROOT
BRANCH   4   7
HETATM    7  N   UNL     1      -2.915  -2.268  -0.580  1.00  0.00    -0.342 N 
HETATM    8  H   UNL     1      -2.782  -3.258  -0.402  1.00  0.00     0.167 HD
BRANCH   7   9
HETATM    9  C   UNL     1      -4.187  -1.970  -1.024  1.00  0.00     0.138 C 
HETATM   10  S   UNL     1      -4.655  -0.806  -2.130  1.00  0.00    -0.053 SA
BRANCH   9  11
HETATM   11  S   UNL     1      -5.320  -3.091  -0.293  1.00  0.00    -0.105 SA
HETATM   12  C   UNL     1      -6.040  -1.935   0.900  1.00  0.00     0.098 C 
ENDBRANCH   9  11
ENDBRANCH   7   9
ENDBRANCH   4   7
BRANCH   1  13
HETATM   13  O   UNL     1       1.406   0.875  -2.021  1.00  0.00    -0.351 OA
BRANCH  13  14
HETATM   14  C   UNL     1       2.697   0.299  -1.800  1.00  0.00     0.175 C 
BRANCH  14  15
HETATM   15  C   UNL     1       3.011   0.241  -0.303  1.00  0.00     0.026 C 
BRANCH  15  16
HETATM   16  C   UNL     1       4.330  -0.500   0.000  1.00  0.00    -0.002 C 
HETATM   17  C   UNL     1       4.330  -1.500   0.000  1.00  0.00     0.005 C 
ENDBRANCH  15  16
ENDBRANCH  14  15
ENDBRANCH  13  14
ENDBRANCH   1  13
TORSDOF 7
