REMARK  6 active torsions:
REMARK  status: ('A' for Active; 'I' for Inactive)
REMARK    1  A    between atoms: C_2  and  C_3 
REMARK    2  A    between atoms: C_3  and  N_4 
REMARK       I    between atoms: N_4  and  C_5 
REMARK    3  A    between atoms: C_5  and  C_7 
REMARK    4  A    between atoms: C_7  and  C_9 
REMARK    5  A    between atoms: C_9  and  O_10 
REMARK    6  A    between atoms: O_10  and  C_11 
ROOT
HETATM    1  C   UNL     1       0.000  -3.000   0.000  1.00  0.00     0.192 C 
HETATM    2 CL   UNL     1       1.378  -3.385  -1.459  1.00  0.00    -0.113 Cl
ENDROOT
BRANCH   1   3
HETATM    3  C   UNL     1      -1.436  -3.374  -0.706  1.00  0.00     0.218 C 
HETATM    4  N   UNL     1      -2.580  -3.451   0.080  1.00  0.00    -0.251 NA
HETATM    5  H   UNL     1      -3.263  -3.931  -0.490  1.00  0.00     0.131 HD
HETATM    6  O   UNL     1      -1.545  -3.830  -1.851  1.00  0.00    -0.278 OA
BRANCH   4   7
HETATM    7  C   UNL     1      -3.210  -2.269   0.662  1.00  0.00     0.188 C 
BRANCH   7   8
HETATM    8  C   UNL     1      -2.681  -1.899   1.979  1.00  0.00    -0.103 C 
HETATM    9  C   UNL     1      -2.156  -1.415   2.940  1.00  0.00     0.013 C 
ENDBRANCH   7   8
ENDBRANCH   4   7
ENDBRANCH   1   3
BRANCH   1  10
HETATM   10  C   UNL     1       0.000  -2.000   0.000  1.00  0.00     0.205 C 
BRANCH  10  11
HETATM   11  O   UNL     1       1.116  -1.279   0.578  1.00  0.00    -0.344 OA
BRANCH  11  12
HETATM   12  C   UNL     1       1.178   0.113   0.311  1.00  0.00     0.140 C 
HETATM   13  C   UNL     1       0.018   1.045   0.115  1.00  0.00     0.205 C 
HETATM   14  C   UNL     1       0.334   2.345  -0.021  1.00  0.00     0.057 C 
HETATM   15  O   UNL     1      -1.142   0.564   0.097  1.00  0.00    -0.286 OA
HETATM   16  C   UNL     1       1.716   2.891   0.033  1.00  0.00     0.206 C 
HETATM   17  O   UNL     1       2.780   1.932   0.025  1.00  0.00    -0.356 OA
HETATM   18  C   UNL     1       2.419   0.630   0.241  1.00  0.00     0.175 C 
ENDBRANCH  11  12
ENDBRANCH  10  11
ENDBRANCH   1  10
TORSDOF 6
