REMARK  5 active torsions:
REMARK  status: ('A' for Active; 'I' for Inactive)
REMARK    1  A    between atoms: C_7  and  O_8 
REMARK    2  A    between atoms: O_8  and  C_9 
REMARK    3  A    between atoms: C_9  and  C_10 
REMARK    4  A    between atoms: C_10  and  O_11 
REMARK    5  A    between atoms: C_10  and  C_12 
ROOT
HETATM    1  C   UNL     1       0.684   1.055   0.129  1.00  0.00     0.178 C 
ENDROOT
BRANCH   1   2
HETATM    2  C   UNL     1       0.959   2.476  -0.421  1.00  0.00     0.212 C 
BRANCH   2   3
HETATM    3  O   UNL     1       2.087   2.482  -1.314  1.00  0.00    -0.343 OA
BRANCH   3   4
HETATM    4  C   UNL     1       3.323   2.340  -0.693  1.00  0.00     0.140 C 
HETATM    5  C   UNL     1       3.938   3.457   0.040  1.00  0.00     0.205 C 
HETATM    6  O   UNL     1       3.211   4.467   0.218  1.00  0.00    -0.286 OA
HETATM    7  C   UNL     1       5.216   3.259   0.410  1.00  0.00     0.057 C 
HETATM    8  C   UNL     1       5.992   2.013   0.128  1.00  0.00     0.206 C 
HETATM    9  O   UNL     1       5.266   0.913  -0.439  1.00  0.00    -0.356 OA
HETATM   10  C   UNL     1       4.005   1.202  -0.886  1.00  0.00     0.175 C 
ENDBRANCH   3   4
ENDBRANCH   2   3
ENDBRANCH   1   2
BRANCH   1  11
HETATM   11  O   UNL     1       1.119   0.950   1.491  1.00  0.00    -0.389 OA
HETATM   12  H   UNL     1       1.965   1.445   1.534  1.00  0.00     0.210 HD
ENDBRANCH   1  11
BRANCH   1  13
HETATM   13  C   UNL     1      -0.760   0.609   0.089  1.00  0.00     0.007 A 
HETATM   14  C   UNL     1      -1.156  -0.710  -0.170  1.00  0.00     0.022 A 
HETATM   15  C   UNL     1      -2.508  -1.052  -0.224  1.00  0.00     0.039 A 
HETATM   16 BR   UNL     1       0.081  -2.128  -0.455  1.00  0.00    -0.050 Br
HETATM   17  C   UNL     1      -3.442  -0.060   0.000  1.00  0.00     0.117 A 
HETATM   18  N   UNL     1      -3.117   1.213   0.290  1.00  0.00    -0.272 NA
HETATM   19  C   UNL     1      -1.794   1.510   0.343  1.00  0.00     0.127 A 
ENDBRANCH   1  13
TORSDOF 5
