REMARK  6 active torsions:
REMARK  status: ('A' for Active; 'I' for Inactive)
REMARK    1  A    between atoms: S_2  and  C_3 
REMARK    2  A    between atoms: C_3  and  C_4 
REMARK    3  A    between atoms: C_4  and  O_5 
REMARK    4  A    between atoms: C_4  and  C_6 
REMARK    5  A    between atoms: C_6  and  O_7 
REMARK    6  A    between atoms: O_7  and  C_8 
ROOT
HETATM    1  C   UNL     1       1.141   0.826  -0.300  1.00  0.00     0.081 C 
HETATM    2  C   UNL     1       1.199   2.265  -0.214  1.00  0.00    -0.028 C 
HETATM    3  C   UNL     1       2.438   3.052  -0.456  1.00  0.00     0.051 C 
HETATM    4  C   UNL     1       0.054   2.931   0.109  1.00  0.00     0.010 C 
HETATM    5  C   UNL     1      -1.154   2.236   0.239  1.00  0.00     0.008 C 
HETATM    6  C   UNL     1      -1.169   0.818   0.098  1.00  0.00    -0.053 C 
HETATM    7  C   UNL     1      -2.569   0.233   0.060  1.00  0.00     0.049 C 
HETATM    8  C   UNL     1       0.000   0.000   0.000  1.00  0.00    -0.022 C 
HETATM    9  C   UNL     1       0.000  -1.000   0.000  1.00  0.00     0.052 C 
ENDROOT
BRANCH   1  10
HETATM   10  O   UNL     1       2.201   0.181  -0.925  1.00  0.00    -0.347 OA
BRANCH  10  11
HETATM   11  C   UNL     1       3.300  -0.111  -0.052  1.00  0.00     0.208 C 
BRANCH  11  12
HETATM   12  C   UNL     1       3.851  -1.526  -0.341  1.00  0.00     0.151 C 
BRANCH  12  13
HETATM   13  C   UNL     1       3.261  -2.689   0.513  1.00  0.00     0.107 C 
BRANCH  13  14
HETATM   14  S   UNL     1       2.593  -4.237  -0.304  1.00  0.00    -0.171 SA
HETATM   15  C   UNL     1       0.828  -3.914  -0.330  1.00  0.00     0.089 C 
ENDBRANCH  13  14
ENDBRANCH  12  13
BRANCH  12  16
HETATM   16  O   UNL     1       5.274  -1.451  -0.083  1.00  0.00    -0.393 OA
HETATM   17  H   UNL     1       5.387  -1.227   0.870  1.00  0.00     0.210 HD
ENDBRANCH  12  16
ENDBRANCH  11  12
ENDBRANCH  10  11
ENDBRANCH   1  10
TORSDOF 6
