REMARK  1 active torsions:
REMARK  status: ('A' for Active; 'I' for Inactive)
REMARK    1  A    between atoms: N_7  and  C_8 
ROOT
HETATM    1  C   UNL     1      -0.620  -2.452  -1.456  1.00  0.00     0.015 C 
HETATM    2  C   UNL     1      -0.707  -1.707   0.000  1.00  0.00    -0.045 A 
HETATM    3  C   UNL     1      -1.414  -1.000   0.000  1.00  0.00     0.026 A 
HETATM    4  C   UNL     1      -0.981  -2.976   0.915  1.00  0.00     0.015 C 
HETATM    5  C   UNL     1       0.000  -1.000   0.000  1.00  0.00     0.019 A 
HETATM    6  C   UNL     1       0.342  -0.644   1.674  1.00  0.00     0.131 C 
HETATM    7  N   UNL     1       1.657  -1.261   1.530  1.00  0.00    -0.358 N 
HETATM    8  C   UNL     1       1.463  -1.834   0.181  1.00  0.00     0.131 C 
ENDROOT
BRANCH   7   9
HETATM    9  C   UNL     1       2.826  -0.782   2.052  1.00  0.00     0.350 C 
HETATM   10  O   UNL     1       3.949  -1.048   1.646  1.00  0.00    -0.284 OA
ENDBRANCH   7   9
TORSDOF 1
