REMARK  2 active torsions:
REMARK  status: ('A' for Active; 'I' for Inactive)
REMARK    1  A    between atoms: S_2  and  C_3 
REMARK    2  A    between atoms: C_3  and  C_5 
ROOT
HETATM    1  C   UNL     1      -0.307  -0.184  -0.000  1.00  0.00     0.061 A 
HETATM    2  C   UNL     1      -0.916  -1.432   0.000  1.00  0.00     0.024 A 
HETATM    3  C   UNL     1      -2.348  -1.387   0.000  1.00  0.00     0.009 A 
HETATM    4  C   UNL     1      -2.825  -0.104   0.000  1.00  0.00     0.050 A 
HETATM    5  S   UNL     1      -1.567   1.036  -0.000  1.00  0.00    -0.098 SA
ENDROOT
BRANCH   1   6
HETATM    6  C   UNL     1       1.061   0.368  -0.000  1.00  0.00     0.225 C 
HETATM    7  O   UNL     1       1.249   1.582  -0.000  1.00  0.00    -0.279 OA
BRANCH   6   8
HETATM    8  S   UNL     1       2.562  -0.551   0.001  1.00  0.00    -0.091 SA
HETATM    9  C   UNL     1       2.417  -2.278  -0.003  1.00  0.00     0.099 C 
ENDBRANCH   6   8
ENDBRANCH   1   6
TORSDOF 2
