REMARK  9 active torsions:
REMARK  status: ('A' for Active; 'I' for Inactive)
REMARK    1  A    between atoms: O_2  and  C_3 
REMARK    2  A    between atoms: C_7  and  C_8 
REMARK    3  A    between atoms: C_8  and  O_10 
REMARK    4  A    between atoms: O_10  and  C_11 
REMARK    5  A    between atoms: C_11  and  C_12 
REMARK    6  A    between atoms: C_12  and  C_13 
REMARK    7  A    between atoms: C_12  and  O_15 
REMARK    8  A    between atoms: C_13  and  O_14 
REMARK    9  A    between atoms: O_15  and  C_16 
ROOT
HETATM    1  C   UNL     1      -3.048  -1.573   1.433  1.00  0.00     0.203 C 
ENDROOT
BRANCH   1   2
HETATM    2  O   UNL     1      -2.283  -0.357   1.357  1.00  0.00    -0.379 OA
BRANCH   2   3
HETATM    3  C   UNL     1      -1.732   0.000   0.000  1.00  0.00     0.150 C 
HETATM    4  C   UNL     1      -1.732   1.000   0.000  1.00  0.00     0.045 C 
BRANCH   3   5
HETATM    5  C   UNL     1      -0.847  -0.998  -0.928  1.00  0.00    -0.027 C 
HETATM    6  C   UNL     1      -0.604  -2.355  -0.551  1.00  0.00     0.010 C 
HETATM    7  C   UNL     1       0.568  -3.006  -0.916  1.00  0.00     0.003 C 
HETATM    8  C   UNL     1       1.620  -2.246  -1.386  1.00  0.00     0.037 C 
HETATM    9  C   UNL     1       1.401  -0.885  -1.571  1.00  0.00     0.068 C 
HETATM   10  C   UNL     1       0.120  -0.401  -1.728  1.00  0.00     0.046 C 
BRANCH   9  11
HETATM   11  O   UNL     1       2.394   0.036  -1.295  1.00  0.00    -0.356 OA
HETATM   12  C   UNL     1       3.088  -0.298  -0.072  1.00  0.00     0.210 C 
ENDBRANCH   9  11
ENDBRANCH   3   5
ENDBRANCH   2   3
ENDBRANCH   1   2
BRANCH   1  13
HETATM   13  C   UNL     1      -3.464  -2.000   0.000  1.00  0.00     0.176 C 
BRANCH  13  14
HETATM   14  C   UNL     1      -4.889  -1.528  -0.717  1.00  0.00     0.198 C 
BRANCH  14  15
HETATM   15  O   UNL     1      -4.945  -0.133  -1.122  1.00  0.00    -0.398 OA
HETATM   16  H   UNL     1      -5.104   0.347  -0.296  1.00  0.00     0.209 HD
ENDBRANCH  14  15
ENDBRANCH  13  14
BRANCH  13  17
HETATM   17  O   UNL     1      -3.464  -3.000   0.000  1.00  0.00    -0.336 OA
BRANCH  17  18
HETATM   18  C   UNL     1      -4.379  -4.033   0.168  1.00  0.00     0.141 C 
HETATM   19  C   UNL     1      -5.577  -3.989   1.032  1.00  0.00     0.205 C 
HETATM   20  C   UNL     1      -6.561  -4.832   0.682  1.00  0.00     0.057 C 
HETATM   21  O   UNL     1      -5.553  -3.161   1.971  1.00  0.00    -0.286 OA
HETATM   22  C   UNL     1      -6.408  -5.867  -0.383  1.00  0.00     0.206 C 
HETATM   23  O   UNL     1      -5.042  -6.196  -0.712  1.00  0.00    -0.356 OA
HETATM   24  C   UNL     1      -4.170  -5.144  -0.572  1.00  0.00     0.175 C 
ENDBRANCH  17  18
ENDBRANCH  13  17
ENDBRANCH   1  13
TORSDOF 9
