REMARK  3 active torsions:
REMARK  status: ('A' for Active; 'I' for Inactive)
REMARK    1  A    between atoms: N_4  and  C_5 
REMARK    2  A    between atoms: C_7  and  N_8 
REMARK    3  A    between atoms: C_10  and  C_11 
ROOT
HETATM    1  C   UNL     1      -2.957  -2.031  -0.341  1.00  0.00     0.750 A 
HETATM    2  N   UNL     1      -2.928  -3.367  -0.267  1.00  0.00    -0.030 NA
HETATM    3  C   UNL     1      -4.113  -3.950  -0.323  1.00  0.00     0.219 A 
HETATM    4  N   UNL     1      -5.271  -3.317  -0.404  1.00  0.00    -0.202 NA
HETATM    5  C   UNL     1      -5.216  -1.984  -0.470  1.00  0.00     0.152 A 
HETATM    6  N   UNL     1      -4.071  -1.304  -0.452  1.00  0.00    -0.045 NA
ENDROOT
BRANCH   1   7
HETATM    7  N   UNL     1      -1.712  -1.343  -0.256  1.00  0.00    -0.074 N 
HETATM    8  C   UNL     1      -0.459  -1.895  -0.091  1.00  0.00     0.161 A 
HETATM    9  C   UNL     1       0.386  -0.817   0.035  1.00  0.00     0.066 A 
HETATM   10  C   UNL     1       1.837  -0.786   0.295  1.00  0.00     0.073 C 
HETATM   11  N   UNL     1      -0.336   0.336  -0.101  1.00  0.00    -0.163 NA
HETATM   12  N   UNL     1      -1.609   0.010  -0.286  1.00  0.00     0.024 NA
ENDBRANCH   1   7
BRANCH   5  13
HETATM   13  C   UNL     1      -6.507  -1.208  -0.570  1.00  0.00     0.058 A 
HETATM   14  C   UNL     1      -6.711   0.036   0.268  1.00  0.00     0.013 A 
HETATM   15  C   UNL     1      -7.491  -1.206   0.579  1.00  0.00     0.013 A 
ENDBRANCH   5  13
BRANCH   3  16
HETATM   16  N   UNL     1      -4.144  -5.326  -0.250  1.00  0.00    -0.270 NA
HETATM   17  H   UNL     1      -5.044  -5.643   0.084  1.00  0.00     0.127 HD
HETATM   18  H   UNL     1      -3.324  -5.687   0.214  1.00  0.00     0.127 HD
ENDBRANCH   3  16
TORSDOF 3
