REMARK  2 active torsions:
REMARK  status: ('A' for Active; 'I' for Inactive)
REMARK    1  A    between atoms: N_4  and  C_5 
REMARK    2  A    between atoms: C_5  and  C_6 
ROOT
HETATM    1  C   UNL     1       1.698   1.159   0.719  1.00  0.00     0.172 C 
HETATM    2  O   UNL     1       1.972   2.322  -0.135  1.00  0.00    -0.379 OA
HETATM    3  C   UNL     1       0.771   2.649  -0.892  1.00  0.00     0.203 C 
HETATM    4  C   UNL     1      -0.035   1.388  -0.813  1.00  0.00     0.180 C 
HETATM    5  O   UNL     1      -1.437   1.304  -0.908  1.00  0.00    -0.346 OA
HETATM    6  C   UNL     1      -1.710   0.124  -0.094  1.00  0.00     0.158 C 
HETATM    7  C   UNL     1      -1.941  -1.087  -0.993  1.00  0.00     0.078 C 
HETATM    8  C   UNL     1      -2.930   0.416   0.770  1.00  0.00     0.078 C 
HETATM    9  O   UNL     1      -0.546  -0.155   0.748  1.00  0.00    -0.345 OA
HETATM   10  C   UNL     1       0.189   1.045   0.627  1.00  0.00     0.186 C 
ENDROOT
BRANCH   1  11
HETATM   11  C   UNL     1       2.411  -0.105   0.226  1.00  0.00     0.180 C 
BRANCH  11  12
HETATM   12  N   UNL     1       3.850  -0.147   0.388  1.00  0.00    -0.281 N 
HETATM   13  C   UNL     1       4.628  -1.272   0.365  1.00  0.00     0.136 A 
HETATM   14  C   UNL     1       5.910  -0.785   0.254  1.00  0.00     0.065 A 
HETATM   15  C   UNL     1       7.184  -1.514   0.099  1.00  0.00     0.073 C 
HETATM   16  N   UNL     1       5.875   0.582   0.275  1.00  0.00    -0.164 NA
HETATM   17  N   UNL     1       4.607   0.961   0.350  1.00  0.00     0.004 NA
ENDBRANCH  11  12
ENDBRANCH   1  11
TORSDOF 2
