REMARK  2 active torsions:
REMARK  status: ('A' for Active; 'I' for Inactive)
REMARK    1  A    between atoms: C_6  and  S_7 
REMARK    2  A    between atoms: S_7  and  C_8 
ROOT
HETATM    1  C   UNL     1       2.115   0.046  -0.205  1.00  0.00     0.014 C 
HETATM    2  C   UNL     1       0.772  -0.629   0.038  1.00  0.00     0.026 C 
HETATM    3  C   UNL     1       0.654  -1.935  -0.757  1.00  0.00     0.183 C 
HETATM    4  O   UNL     1      -0.569  -2.624  -0.465  1.00  0.00    -0.333 OA
HETATM    5  C   UNL     1      -1.670  -1.865  -0.432  1.00  0.00     0.180 A 
HETATM    6  C   UNL     1      -3.009  -2.192  -0.417  1.00  0.00     0.079 A 
HETATM    7  C   UNL     1      -3.679  -0.950  -0.373  1.00  0.00     0.162 A 
HETATM    8  N   UNL     1      -2.839   0.088  -0.326  1.00  0.00    -0.181 NA
HETATM    9  N   UNL     1      -1.629  -0.498  -0.360  1.00  0.00    -0.247 N 
HETATM   10  C   UNL     1      -0.404   0.276  -0.339  1.00  0.00     0.159 C 
ENDROOT
BRANCH   6  11
HETATM   11  S   UNL     1      -3.644  -3.812  -0.507  1.00  0.00    -0.056 SA
BRANCH  11  12
HETATM   12  C   UNL     1      -5.295  -3.682   0.059  1.00  0.00     0.309 C 
HETATM   13  O   UNL     1      -6.076  -4.623  -0.026  1.00  0.00    -0.295 OA
ENDBRANCH  11  12
ENDBRANCH   6  11
TORSDOF 2
