REMARK  3 active torsions:
REMARK  status: ('A' for Active; 'I' for Inactive)
REMARK    1  A    between atoms: C_2  and  S_3 
REMARK    2  A    between atoms: S_3  and  C_4 
REMARK    3  A    between atoms: C_6  and  O_8 
ROOT
HETATM    1  C   UNL     1       1.732  -1.000   0.000  1.00  0.00     0.056 A 
HETATM    2  C   UNL     1       1.732   0.000   0.000  1.00  0.00     0.063 A 
HETATM    3  C   UNL     1       0.866   0.500   0.000  1.00  0.00     0.100 A 
HETATM    4  C   UNL     1       0.866   1.500   0.000  1.00  0.00     0.056 A 
ENDROOT
BRANCH   2   5
HETATM    5  S   UNL     1       2.906   0.570   1.607  1.00  0.00    -0.096 SA
BRANCH   5   6
HETATM    6  C   UNL     1       3.900   1.746   0.726  1.00  0.00     0.304 C 
HETATM    7  O   UNL     1       5.093   1.875   0.966  1.00  0.00    -0.295 OA
ENDBRANCH   5   6
ENDBRANCH   2   5
BRANCH   3   8
HETATM    8  O   UNL     1      -0.123   0.049  -1.059  1.00  0.00    -0.398 OA
HETATM    9  H   UNL     1      -1.021   0.107  -0.682  1.00  0.00     0.209 HD
ENDBRANCH   3   8
TORSDOF 3
