REMARK  8 active torsions:
REMARK  status: ('A' for Active; 'I' for Inactive)
REMARK    1  A    between atoms: C_2  and  C_3 
REMARK    2  A    between atoms: C_3  and  C_4 
REMARK    3  A    between atoms: C_4  and  C_5 
REMARK    4  A    between atoms: C_5  and  N_6 
REMARK    5  A    between atoms: C_5  and  C_17 
REMARK    6  A    between atoms: N_6  and  C_7 
REMARK    7  A    between atoms: C_7  and  O_9 
REMARK    8  A    between atoms: O_9  and  C_10 
ROOT
HETATM    1  N   UNL     1       1.923   1.440  -0.433  1.00  0.00    -0.250 NA
HETATM    2  H   UNL     1       1.940   2.177  -1.126  1.00  0.00     0.131 HD
ENDROOT
BRANCH   1   3
HETATM    3  C   UNL     1       3.464   1.000   0.000  1.00  0.00     0.154 C 
BRANCH   3   4
HETATM    4  C   UNL     1       3.912   1.408   1.558  1.00  0.00     0.029 C 
BRANCH   4   5
HETATM    5  C   UNL     1       4.582   2.827   1.674  1.00  0.00     0.002 C 
BRANCH   5   6
HETATM    6  C   UNL     1       5.376   3.378   0.467  1.00  0.00    -0.004 C 
HETATM    7  C   UNL     1       6.444   2.453  -0.092  1.00  0.00     0.005 C 
ENDBRANCH   5   6
ENDBRANCH   4   5
ENDBRANCH   3   4
BRANCH   3   8
HETATM    8  C   UNL     1       3.464   0.000   0.000  1.00  0.00     0.211 A 
HETATM    9  O   UNL     1       2.405  -0.655   0.063  1.00  0.00    -0.272 OA
HETATM   10  O   UNL     1       4.330  -0.500   0.000  1.00  0.00    -0.324 OA
HETATM   11  C   UNL     1       4.330  -1.500   0.000  1.00  0.00     0.296 A 
ENDBRANCH   3   8
ENDBRANCH   1   3
BRANCH   1  12
HETATM   12  C   UNL     1       0.893   1.739   0.455  1.00  0.00     0.194 C 
HETATM   13  S   UNL     1       0.580   3.347   0.824  1.00  0.00    -0.039 SA
BRANCH  12  14
HETATM   14  O   UNL     1       0.346   0.765   1.245  1.00  0.00    -0.285 OA
BRANCH  14  15
HETATM   15  C   UNL     1      -0.448  -0.294   0.678  1.00  0.00     0.128 C 
HETATM   16  C   UNL     1      -1.737  -0.051  -0.007  1.00  0.00     0.227 C 
HETATM   17  C   UNL     1      -2.563  -1.110  -0.135  1.00  0.00     0.192 C 
HETATM   18  O   UNL     1      -1.932   1.144  -0.355  1.00  0.00    -0.283 OA
HETATM   19  O   UNL     1      -2.316  -2.410   0.215  1.00  0.00    -0.355 OA
HETATM   20  C   UNL     1      -0.936  -2.709   0.447  1.00  0.00     0.205 C 
HETATM   21  C   UNL     1      -0.115  -1.570   0.946  1.00  0.00     0.041 C 
ENDBRANCH  14  15
ENDBRANCH  12  14
ENDBRANCH   1  12
TORSDOF 8
