REMARK  0 active torsions:
REMARK  status: ('A' for Active; 'I' for Inactive)
ROOT
HETATM    1  C   UNL     1       1.000  -1.732   0.000  1.00  0.00     0.078 A 
HETATM    2  S   UNL     1       2.000  -1.732   0.000  1.00  0.00    -0.174 SA
HETATM    3  C   UNL     1       2.565  -0.765  -1.330  1.00  0.00     0.182 A 
HETATM    4  O   UNL     1       3.571  -0.817  -1.959  1.00  0.00    -0.286 OA
HETATM    5  C   UNL     1       2.000   0.000   0.000  1.00  0.00     0.111 A 
HETATM    6  C   UNL     1       3.098   1.492   0.207  1.00  0.00     0.029 C 
HETATM    7  C   UNL     1       1.000   0.000   0.000  1.00  0.00     0.016 A 
HETATM    8  O   UNL     1       1.000  -1.000   0.000  1.00  0.00     0.000 OA
HETATM    9  C   UNL     1       0.000   0.000   0.000  1.00  0.00     0.021 A 
HETATM   10  C   UNL     1      -0.420   1.400  -0.305  1.00  0.00     0.003 A 
HETATM   11  C   UNL     1       1.000   1.000   0.000  1.00  0.00     0.021 A 
HETATM   12  H   UNL     1       1.090  -0.956   1.287  1.00  0.00     0.000 HD
ENDROOT
TORSDOF 0
