REMARK  2 active torsions:
REMARK  status: ('A' for Active; 'I' for Inactive)
REMARK    1  A    between atoms: S_2  and  C_3 
REMARK    2  A    between atoms: C_3  and  C_5 
ROOT
HETATM    1  C   UNL     1       0.699   0.356  -0.000  1.00  0.00     0.100 A 
HETATM    2  S   UNL     1       2.034  -0.705   0.000  1.00  0.00    -0.094 SA
HETATM    3  C   UNL     1       1.082  -2.114  -0.000  1.00  0.00     0.054 A 
HETATM    4  C   UNL     1      -0.256  -1.813  -0.000  1.00  0.00     0.051 A 
HETATM    5  C   UNL     1      -0.456  -0.412   0.000  1.00  0.00     0.138 A 
HETATM    6  F   UNL     1      -1.661   0.095  -0.000  1.00  0.00    -0.204 F 
ENDROOT
BRANCH   1   7
HETATM    7  C   UNL     1       0.703   1.814  -0.000  1.00  0.00     0.228 C 
HETATM    8  O   UNL     1      -0.365   2.426   0.000  1.00  0.00    -0.279 OA
BRANCH   7   9
HETATM    9  S   UNL     1       2.107   2.872   0.000  1.00  0.00    -0.091 SA
HETATM   10  C   UNL     1       3.677   2.114  -0.000  1.00  0.00     0.099 C 
ENDBRANCH   7   9
ENDBRANCH   1   7
TORSDOF 2
