REMARK  3 active torsions:
REMARK  status: ('A' for Active; 'I' for Inactive)
REMARK    1  A    between atoms: S_2  and  C_3 
REMARK    2  A    between atoms: N_6  and  C_7 
REMARK    3  A    between atoms: C_7  and  C_8 
ROOT
HETATM    1  C   UNL     1      -4.342  -1.875   0.020  1.00  0.00     0.146 C 
HETATM    2  C   UNL     1      -5.719  -1.355   0.034  1.00  0.00     0.060 C 
HETATM    3  N   UNL     1      -6.799  -0.935   0.044  1.00  0.00    -0.197 NA
ENDROOT
BRANCH   1   4
HETATM    4  C   UNL     1      -3.349  -0.722  -0.026  1.00  0.00     0.166 C 
BRANCH   4   5
HETATM    5  N   UNL     1      -1.947  -1.072   0.016  1.00  0.00    -0.260 N 
HETATM    6  C   UNL     1      -1.319  -2.277  -0.027  1.00  0.00     0.231 A 
HETATM    7  N   UNL     1      -0.016  -2.100   0.049  1.00  0.00    -0.215 NA
HETATM    8  C   UNL     1       0.107  -0.741   0.148  1.00  0.00     0.208 A 
HETATM    9  N   UNL     1      -1.051  -0.077   0.121  1.00  0.00    -0.144 NA
BRANCH   8  10
HETATM   10  S   UNL     1       1.600   0.130   0.349  1.00  0.00    -0.093 SA
HETATM   11  C   UNL     1       2.817  -1.071  -0.207  1.00  0.00     0.099 C 
ENDBRANCH   8  10
ENDBRANCH   4   5
ENDBRANCH   1   4
TORSDOF 3
