REMARK  4 active torsions:
REMARK  status: ('A' for Active; 'I' for Inactive)
REMARK    1  A    between atoms: C_2  and  C_3 
REMARK    2  A    between atoms: C_3  and  C_8 
REMARK    3  A    between atoms: N_4  and  N_5 
REMARK    4  A    between atoms: C_8  and  S_10 
ROOT
HETATM    1  C   UNL     1       0.546  -3.187  -0.886  1.00  0.00     0.108 C 
HETATM    2  N   UNL     1       1.795  -3.431  -0.567  1.00  0.00    -0.178 NA
ENDROOT
BRANCH   1   3
HETATM    3  C   UNL     1      -0.404  -4.188  -0.256  1.00  0.00     0.061 C 
HETATM    4  C   UNL     1      -1.886  -3.878  -0.231  1.00  0.00     0.011 C 
ENDBRANCH   1   3
BRANCH   1   5
HETATM    5  C   UNL     1       0.041  -1.881  -1.439  1.00  0.00     0.204 C 
HETATM    6  O   UNL     1      -0.249  -1.570  -2.583  1.00  0.00    -0.281 OA
BRANCH   5   7
HETATM    7  S   UNL     1       0.000  -1.000   0.000  1.00  0.00    -0.226 SA
HETATM    8  C   UNL     1       0.000   0.000   0.000  1.00  0.00     0.271 C 
ENDBRANCH   5   7
ENDBRANCH   1   5
BRANCH   2   9
HETATM    9  N   UNL     1       2.598  -2.500   0.000  1.00  0.00    -0.314 N 
HETATM   10  C   UNL     1       3.906  -3.172   0.303  1.00  0.00     0.172 C 
HETATM   11  C   UNL     1       2.598  -1.500   0.000  1.00  0.00     0.172 C 
ENDBRANCH   2   9
TORSDOF 4
