REMARK  2 active torsions:
REMARK  status: ('A' for Active; 'I' for Inactive)
REMARK    1  A    between atoms: S_2  and  C_3 
REMARK    2  A    between atoms: C_3  and  C_5 
ROOT
HETATM    1  C   UNL     1       1.014   0.234   0.165  1.00  0.00     0.169 C 
HETATM    2  O   UNL     1       0.940   1.452   0.276  1.00  0.00    -0.287 OA
ENDROOT
BRANCH   1   3
HETATM    3  S   UNL     1       2.598  -0.500   0.000  1.00  0.00    -0.231 SA
HETATM    4  C   UNL     1       2.598  -1.500   0.000  1.00  0.00     0.270 C 
ENDBRANCH   1   3
BRANCH   1   5
HETATM    5  C   UNL     1      -0.178  -0.704   0.110  1.00  0.00     0.202 C 
HETATM    6 CL   UNL     1      -1.681   0.127   0.563  1.00  0.00    -0.122 Cl
ENDBRANCH   1   5
TORSDOF 2
