REMARK  4 active torsions:
REMARK  status: ('A' for Active; 'I' for Inactive)
REMARK    1  A    between atoms: S_2  and  C_3 
REMARK       I    between atoms: C_3  and  N_5 
REMARK    2  A    between atoms: N_5  and  C_6 
REMARK    3  A    between atoms: C_6  and  C_7 
REMARK    4  A    between atoms: C_7  and  N_8 
ROOT
HETATM    1  C   UNL     1       0.295  -0.643  -0.718  1.00  0.00     0.145 C 
ENDROOT
BRANCH   1   2
HETATM    2  N   UNL     1       1.341  -1.636  -0.880  1.00  0.00    -0.350 N 
HETATM    3  C   UNL     1       2.238  -1.905   0.111  1.00  0.00     0.279 C 
HETATM    4  O   UNL     1       2.176  -1.540   1.271  1.00  0.00    -0.260 OA
HETATM    5  H   UNL     1       1.635  -1.903  -1.810  1.00  0.00     0.163 HD
BRANCH   3   6
HETATM    6  S   UNL     1       3.533  -2.889  -0.515  1.00  0.00    -0.074 SA
HETATM    7  C   UNL     1       3.115  -4.411   0.357  1.00  0.00     0.100 C 
ENDBRANCH   3   6
ENDBRANCH   1   2
BRANCH   1   8
HETATM    8  C   UNL     1      -0.781  -1.032   0.293  1.00  0.00     0.170 C 
BRANCH   8   9
HETATM    9  N   UNL     1      -1.875  -0.077   0.294  1.00  0.00    -0.280 N 
HETATM   10  N   UNL     1      -1.638   1.211   0.606  1.00  0.00    -0.185 NA
HETATM   11  C   UNL     1      -2.833   1.792   0.497  1.00  0.00     0.140 A 
HETATM   12  C   UNL     1      -3.834   0.884   0.105  1.00  0.00     0.040 A 
HETATM   13  C   UNL     1      -3.181  -0.321  -0.018  1.00  0.00     0.113 A 
ENDBRANCH   8   9
ENDBRANCH   1   8
TORSDOF 4
