REMARK  2 active torsions:
REMARK  status: ('A' for Active; 'I' for Inactive)
REMARK    1  A    between atoms: S_2  and  C_3 
REMARK    2  A    between atoms: C_3  and  C_5 
ROOT
HETATM    1  C   UNL     1       0.825  -0.552   0.052  1.00  0.00     0.128 C 
HETATM    2  C   UNL     1       2.164  -1.250  -0.205  1.00  0.00     0.055 C 
HETATM    3  C   UNL     1      -0.099  -1.420   0.919  1.00  0.00     0.049 C 
HETATM    4  C   UNL     1      -1.021  -2.072  -0.084  1.00  0.00     0.030 C 
HETATM    5  C   UNL     1      -1.141  -0.993  -1.130  1.00  0.00     0.169 C 
HETATM    6  O   UNL     1       0.163  -0.412  -1.219  1.00  0.00    -0.372 OA
ENDROOT
BRANCH   1   7
HETATM    7  C   UNL     1       1.122   0.788   0.764  1.00  0.00     0.219 C 
HETATM    8  O   UNL     1       1.240   0.897   1.981  1.00  0.00    -0.282 OA
BRANCH   7   9
HETATM    9  S   UNL     1       1.425   2.176  -0.288  1.00  0.00    -0.094 SA
HETATM   10  C   UNL     1       3.035   2.641   0.381  1.00  0.00     0.099 C 
ENDBRANCH   7   9
ENDBRANCH   1   7
TORSDOF 2
