REMARK  3 active torsions:
REMARK  status: ('A' for Active; 'I' for Inactive)
REMARK    1  A    between atoms: S_2  and  C_3 
REMARK    2  A    between atoms: C_3  and  N_5 
REMARK    3  A    between atoms: N_5  and  C_6 
ROOT
HETATM    1  C   UNL     1       0.528  -0.811  -0.197  1.00  0.00     0.111 A 
HETATM    2  C   UNL     1       1.879  -1.197  -0.161  1.00  0.00     0.147 A 
HETATM    3  F   UNL     1       2.828  -0.248  -0.251  1.00  0.00    -0.204 F 
HETATM    4  C   UNL     1       2.274  -2.520  -0.015  1.00  0.00     0.068 A 
HETATM    5  C   UNL     1       1.299  -3.505   0.075  1.00  0.00     0.040 A 
HETATM    6 CL   UNL     1       1.763  -5.153   0.218  1.00  0.00    -0.084 Cl
HETATM    7  C   UNL     1      -0.048  -3.164   0.022  1.00  0.00     0.068 A 
HETATM    8  C   UNL     1      -0.427  -1.827  -0.119  1.00  0.00     0.147 A 
HETATM    9  F   UNL     1      -1.730  -1.585  -0.290  1.00  0.00    -0.204 F 
ENDROOT
BRANCH   1  10
HETATM   10  N   UNL     1       0.301   0.569  -0.379  1.00  0.00    -0.337 N 
HETATM   11  H   UNL     1       1.118   1.070  -0.711  1.00  0.00     0.167 HD
BRANCH  10  12
HETATM   12  C   UNL     1      -0.761   1.395  -0.114  1.00  0.00     0.138 C 
HETATM   13  S   UNL     1      -2.187   1.100   0.688  1.00  0.00    -0.053 SA
BRANCH  12  14
HETATM   14  S   UNL     1      -0.396   3.019  -0.712  1.00  0.00    -0.105 SA
HETATM   15  C   UNL     1       1.101   3.414   0.223  1.00  0.00     0.098 C 
ENDBRANCH  12  14
ENDBRANCH  10  12
ENDBRANCH   1  10
TORSDOF 3
