REMARK  1 active torsions:
REMARK  status: ('A' for Active; 'I' for Inactive)
REMARK    1  A    between atoms: C_2  and  N_3 
ROOT
HETATM    1  N   UNL     1      -0.903  -0.695   0.179  1.00  0.00    -0.358 N 
HETATM    2  C   UNL     1      -2.094   0.107  -0.017  1.00  0.00     0.132 C 
HETATM    3  C   UNL     1      -1.912   1.610   0.191  1.00  0.00     0.098 C 
HETATM    4  C   UNL     1      -0.506   2.129   0.097  1.00  0.00     0.130 C 
HETATM    5  O   UNL     1      -0.294   3.335  -0.008  1.00  0.00    -0.298 OA
HETATM    6  C   UNL     1       0.652   1.182   0.282  1.00  0.00     0.098 C 
HETATM    7  C   UNL     1       0.344  -0.171  -0.321  1.00  0.00     0.132 C 
ENDROOT
BRANCH   1   8
HETATM    8  C   UNL     1      -1.071  -2.076   0.263  1.00  0.00     0.350 C 
HETATM    9  O   UNL     1      -2.146  -2.658   0.334  1.00  0.00    -0.284 OA
ENDBRANCH   1   8
TORSDOF 1
