REMARK  4 active torsions:
REMARK  status: ('A' for Active; 'I' for Inactive)
REMARK    1  A    between atoms: C_2  and  O_3 
REMARK    2  A    between atoms: O_3  and  C_4 
REMARK    3  A    between atoms: C_10  and  S_11 
REMARK    4  A    between atoms: S_11  and  C_12 
ROOT
HETATM    1  C   UNL     1       0.174  -0.631   0.097  1.00  0.00     0.224 C 
HETATM    2  C   UNL     1      -0.324  -1.770  -0.790  1.00  0.00     0.086 C 
HETATM    3  C   UNL     1      -1.450  -2.495  -0.044  1.00  0.00     0.053 C 
HETATM    4  C   UNL     1      -2.226  -3.387  -1.020  1.00  0.00     0.040 C 
HETATM    5  C   UNL     1      -0.875  -3.383   1.075  1.00  0.00     0.040 C 
HETATM    6  N   UNL     1      -2.415  -1.550   0.556  1.00  0.00    -0.256 NA
HETATM    7  C   UNL     1      -2.111  -0.301   0.632  1.00  0.00     0.167 C 
HETATM    8  N   UNL     1      -0.934   0.260   0.228  1.00  0.00    -0.343 N 
HETATM    9  H   UNL     1      -0.716   1.180   0.586  1.00  0.00     0.164 HD
ENDROOT
BRANCH   1  10
HETATM   10  O   UNL     1       1.302   0.033  -0.481  1.00  0.00    -0.367 OA
BRANCH  10  11
HETATM   11  C   UNL     1       2.598  -0.500   0.000  1.00  0.00     0.166 C 
HETATM   12  C   UNL     1       2.598  -1.500   0.000  1.00  0.00     0.033 C 
ENDBRANCH  10  11
ENDBRANCH   1  10
BRANCH   7  13
HETATM   13  S   UNL     1      -3.227   0.833   1.343  1.00  0.00    -0.024 SA
BRANCH  13  14
HETATM   14  C   UNL     1      -4.706  -0.095   1.176  1.00  0.00     0.312 C 
HETATM   15  O   UNL     1      -5.734   0.260   1.743  1.00  0.00    -0.295 OA
ENDBRANCH  13  14
ENDBRANCH   7  13
TORSDOF 4
