REMARK  3 active torsions:
REMARK  status: ('A' for Active; 'I' for Inactive)
REMARK    1  A    between atoms: C_2  and  N_3 
REMARK    2  A    between atoms: N_3  and  C_4 
REMARK    3  A    between atoms: C_6  and  O_7 
ROOT
HETATM    1  C   UNL     1       0.839  -0.653   0.000  1.00  0.00     0.179 A 
HETATM    2  C   UNL     1       0.367  -1.943   0.000  1.00  0.00     0.118 A 
HETATM    3  C   UNL     1      -1.015  -1.772   0.000  1.00  0.00     0.193 A 
HETATM    4  N   UNL     1      -1.409  -0.504   0.000  1.00  0.00    -0.101 NA
HETATM    5  O   UNL     1      -0.216   0.217   0.000  1.00  0.00    -0.193 OA
ENDROOT
BRANCH   1   6
HETATM    6  N   UNL     1       2.085  -0.083   0.000  1.00  0.00    -0.313 N 
HETATM    7  H   UNL     1       2.132   0.927   0.000  1.00  0.00     0.170 HD
BRANCH   6   8
HETATM    8  C   UNL     1       3.234  -0.830  -0.000  1.00  0.00     0.354 C 
HETATM    9  O   UNL     1       3.344  -2.048   0.000  1.00  0.00    -0.283 OA
ENDBRANCH   6   8
ENDBRANCH   1   6
BRANCH   3  10
HETATM   10  O   UNL     1      -1.975  -2.697   0.000  1.00  0.00    -0.343 OA
HETATM   11  H   UNL     1      -2.817  -2.210   0.000  1.00  0.00     0.219 HD
ENDBRANCH   3  10
TORSDOF 3
