REMARK  3 active torsions:
REMARK  status: ('A' for Active; 'I' for Inactive)
REMARK       I    between atoms: N_2  and  C_3 
REMARK    1  A    between atoms: C_3  and  C_5 
REMARK    2  A    between atoms: C_5  and  C_6 
REMARK    3  A    between atoms: C_6  and  S_7 
ROOT
HETATM    1  C   UNL     1       4.330  -1.500   0.000  1.00  0.00     0.149 C 
HETATM    2  N   UNL     1       4.330  -0.500   0.000  1.00  0.00    -0.365 N 
HETATM    3  C   UNL     1       3.781   0.314   0.945  1.00  0.00     0.217 C 
HETATM    4  O   UNL     1       4.097   1.503   0.944  1.00  0.00    -0.274 OA
HETATM    5  H   UNL     1       4.948   0.063  -0.585  1.00  0.00     0.161 HD
ENDROOT
BRANCH   3   6
HETATM    6  C   UNL     1       2.743  -0.205   1.914  1.00  0.00     0.113 C 
BRANCH   6   7
HETATM    7  C   UNL     1       1.363   0.255   1.445  1.00  0.00     0.082 C 
BRANCH   7   8
HETATM    8  S   UNL     1       0.579  -0.990   0.366  1.00  0.00    -0.173 SA
HETATM    9  C   UNL     1      -0.728   0.049  -0.337  1.00  0.00     0.089 C 
ENDBRANCH   7   8
ENDBRANCH   6   7
ENDBRANCH   3   6
TORSDOF 3
