REMARK  5 active torsions:
REMARK  status: ('A' for Active; 'I' for Inactive)
REMARK    1  A    between atoms: N_2  and  C_3 
REMARK    2  A    between atoms: C_3  and  C_4 
REMARK    3  A    between atoms: C_4  and  C_5 
REMARK    4  A    between atoms: C_5  and  O_6 
REMARK    5  A    between atoms: O_6  and  C_7 
ROOT
HETATM    1  C   UNL     1       0.751  -0.100   0.170  1.00  0.00     0.008 A 
HETATM    2  C   UNL     1      -0.342  -0.788  -0.650  1.00  0.00     0.014 A 
HETATM    3  C   UNL     1      -0.668  -0.276   0.710  1.00  0.00     0.014 A 
ENDROOT
BRANCH   1   4
HETATM    4  C   UNL     1       1.134   1.304  -0.286  1.00  0.00     0.280 C 
BRANCH   4   5
HETATM    5  N   UNL     1       2.453   1.781   0.114  1.00  0.00     0.080 N 
HETATM    6  C   UNL     1       3.508   1.356  -0.804  1.00  0.00     0.306 C 
HETATM    7  H   UNL     1       2.437   2.801   0.131  1.00  0.00     0.315 HD
ENDBRANCH   4   5
ENDBRANCH   1   4
BRANCH   1   8
HETATM    8  C   UNL     1       1.807  -0.962   0.853  1.00  0.00     0.189 C 
BRANCH   8   9
HETATM    9  O   UNL     1       2.151  -2.078   0.015  1.00  0.00    -0.328 OA
BRANCH   9  10
HETATM   10  C   UNL     1       1.830  -3.304   0.492  1.00  0.00     0.398 C 
HETATM   11  O   UNL     1       1.271  -3.570   1.542  1.00  0.00    -0.276 OA
ENDBRANCH   9  10
ENDBRANCH   8   9
ENDBRANCH   1   8
TORSDOF 5
