REMARK  2 active torsions:
REMARK  status: ('A' for Active; 'I' for Inactive)
REMARK    1  A    between atoms: C_8  and  O_9 
REMARK    2  A    between atoms: O_9  and  C_10 
ROOT
HETATM    1  N   UNL     1      -1.314  -3.593  -1.086  1.00  0.00    -0.190 NA
HETATM    2  C   UNL     1      -1.838  -2.594  -0.802  1.00  0.00     0.124 C 
HETATM    3  C   UNL     1      -2.578  -1.425  -0.414  1.00  0.00     0.189 C 
HETATM    4  N   UNL     1      -3.810  -1.322  -1.014  1.00  0.00    -0.244 NA
HETATM    5  C   UNL     1      -4.594  -0.329  -0.542  1.00  0.00     0.137 C 
HETATM    6  C   UNL     1      -4.227   0.464   0.530  1.00  0.00     0.138 C 
HETATM    7  N   UNL     1      -3.058   0.300   1.180  1.00  0.00    -0.233 NA
HETATM    8  C   UNL     1      -2.184  -0.592   0.629  1.00  0.00     0.210 C 
ENDROOT
BRANCH   8   9
HETATM    9  O   UNL     1      -0.989  -0.732   1.301  1.00  0.00    -0.283 OA
BRANCH   9  10
HETATM   10  C   UNL     1       0.200  -0.586   0.571  1.00  0.00     0.149 C 
HETATM   11  C   UNL     1       0.604   0.714   0.003  1.00  0.00     0.205 C 
HETATM   12  C   UNL     1       1.882   0.794  -0.404  1.00  0.00     0.057 C 
HETATM   13  O   UNL     1      -0.285   1.600  -0.027  1.00  0.00    -0.286 OA
HETATM   14  C   UNL     1       2.851  -0.340  -0.348  1.00  0.00     0.206 C 
HETATM   15  O   UNL     1       2.305  -1.631  -0.040  1.00  0.00    -0.356 OA
HETATM   16  C   UNL     1       1.052  -1.626   0.515  1.00  0.00     0.176 C 
ENDBRANCH   9  10
ENDBRANCH   8   9
TORSDOF 2
