REMARK  5 active torsions:
REMARK  status: ('A' for Active; 'I' for Inactive)
REMARK    1  A    between atoms: S_2  and  C_3 
REMARK    2  A    between atoms: C_3  and  C_4 
REMARK    3  A    between atoms: C_3  and  C_6 
REMARK    4  A    between atoms: C_4  and  O_5 
REMARK    5  A    between atoms: C_10  and  C_11 
ROOT
HETATM    1  C   UNL     1      -0.233  -0.614  -0.522  1.00  0.00    -0.044 A 
HETATM    2  C   UNL     1      -0.390  -1.985  -0.798  1.00  0.00     0.008 A 
HETATM    3  C   UNL     1      -1.599  -2.645  -0.564  1.00  0.00     0.001 A 
HETATM    4  C   UNL     1      -2.702  -1.942  -0.089  1.00  0.00     0.016 A 
HETATM    5  C   UNL     1      -2.599  -0.570   0.169  1.00  0.00     0.048 A 
HETATM    6  C   UNL     1      -1.363   0.075  -0.040  1.00  0.00     0.024 A 
ENDROOT
BRANCH   1   7
HETATM    7  C   UNL     1       1.082   0.094  -0.882  1.00  0.00     0.072 C 
BRANCH   7   8
HETATM    8  S   UNL     1       2.598  -0.500   0.000  1.00  0.00    -0.285 SA
HETATM    9  C   UNL     1       2.598  -1.500   0.000  1.00  0.00     0.250 C 
ENDBRANCH   7   8
BRANCH   7  10
HETATM   10  C   UNL     1       1.095   1.631  -0.627  1.00  0.00     0.181 C 
BRANCH  10  11
HETATM   11  O   UNL     1       0.203   2.326  -1.501  1.00  0.00    -0.399 OA
HETATM   12  H   UNL     1       0.280   3.273  -1.285  1.00  0.00     0.209 HD
ENDBRANCH  10  11
ENDBRANCH   7  10
ENDBRANCH   1   7
BRANCH   5  13
HETATM   13  C   UNL     1      -3.817   0.221   0.582  1.00  0.00     0.417 C 
HETATM   14  F   UNL     1      -4.533   0.667  -0.489  1.00  0.00    -0.166 F 
HETATM   15  F   UNL     1      -4.692  -0.498   1.339  1.00  0.00    -0.166 F 
HETATM   16  F   UNL     1      -3.518   1.330   1.317  1.00  0.00    -0.166 F 
ENDBRANCH   5  13
TORSDOF 5
