REMARK  14 active torsions:
REMARK  status: ('A' for Active; 'I' for Inactive)
REMARK    1  A    between atoms: O_2  and  C_3 
REMARK    2  A    between atoms: C_7  and  C_8 
REMARK    3  A    between atoms: C_9  and  C_11 
REMARK    4  A    between atoms: C_11  and  C_12 
REMARK    5  A    between atoms: C_12  and  C_14 
REMARK    6  A    between atoms: C_14  and  O_15 
REMARK    7  A    between atoms: C_14  and  C_16 
REMARK    8  A    between atoms: C_16  and  C_18 
REMARK    9  A    between atoms: C_18  and  C_19 
REMARK   10  A    between atoms: C_18  and  C_22 
REMARK   11  A    between atoms: C_19  and  C_20 
REMARK   12  A    between atoms: C_20  and  O_21 
REMARK   13  A    between atoms: C_22  and  C_24 
REMARK   14  A    between atoms: C_29  and  O_30 
ROOT
HETATM    1  C   UNL     1      -4.220   0.414  -1.183  1.00  0.00     0.257 C 
ENDROOT
BRANCH   1   2
HETATM    2  C   UNL     1      -4.365  -0.987  -0.622  1.00  0.00     0.166 C 
HETATM    3  O   UNL     1      -5.459  -1.521  -0.435  1.00  0.00    -0.294 OA
BRANCH   2   4
HETATM    4  C   UNL     1      -3.046  -1.760  -0.275  1.00  0.00     0.115 C 
BRANCH   4   5
HETATM    5  C   UNL     1      -1.732  -1.000   0.000  1.00  0.00    -0.074 C 
HETATM    6  C   UNL     1      -0.606  -1.776   0.147  1.00  0.00     0.034 C 
HETATM    7  C   UNL     1      -1.732   0.000   0.000  1.00  0.00     0.044 C 
BRANCH   6   8
HETATM    8  C   UNL     1       0.797  -1.268   0.313  1.00  0.00     0.062 A 
HETATM    9  C   UNL     1       1.880  -2.064  -0.003  1.00  0.00     0.051 A 
HETATM   10  C   UNL     1       3.117  -1.464   0.071  1.00  0.00     0.123 A 
HETATM   11  N   UNL     1       3.312  -0.180   0.424  1.00  0.00    -0.219 NA
HETATM   12  C   UNL     1       2.200   0.504   0.723  1.00  0.00     0.268 A 
HETATM   13  N   UNL     1       0.955   0.016   0.706  1.00  0.00    -0.207 NA
BRANCH  12  14
HETATM   14  O   UNL     1       2.342   1.795   1.171  1.00  0.00    -0.324 OA
HETATM   15  C   UNL     1       2.776   2.631   0.105  1.00  0.00     0.213 C 
ENDBRANCH  12  14
ENDBRANCH   6   8
ENDBRANCH   4   5
ENDBRANCH   2   4
ENDBRANCH   1   2
BRANCH   1  16
HETATM   16  O   UNL     1      -3.473   0.441  -2.382  1.00  0.00    -0.380 OA
HETATM   17  H   UNL     1      -4.078   0.156  -3.091  1.00  0.00     0.211 HD
ENDBRANCH   1  16
BRANCH   1  18
HETATM   18  C   UNL     1      -5.383   1.369  -1.318  1.00  0.00     0.174 C 
HETATM   19  O   UNL     1      -6.333   1.100  -2.060  1.00  0.00    -0.294 OA
BRANCH  18  20
HETATM   20  C   UNL     1      -5.291   2.738  -0.591  1.00  0.00     0.135 C 
BRANCH  20  21
HETATM   21  C   UNL     1      -3.838   3.160  -0.242  1.00  0.00     0.046 C 
BRANCH  21  22
HETATM   22  C   UNL     1      -3.572   4.626   0.071  1.00  0.00     0.165 C 
BRANCH  22  23
HETATM   23  O   UNL     1      -4.338   5.471  -0.766  1.00  0.00    -0.401 OA
HETATM   24  H   UNL     1      -5.094   5.771  -0.229  1.00  0.00     0.209 HD
ENDBRANCH  22  23
ENDBRANCH  21  22
ENDBRANCH  20  21
BRANCH  20  25
HETATM   25  C   UNL     1      -6.189   2.855   0.632  1.00  0.00     0.173 C 
HETATM   26  O   UNL     1      -6.054   3.723   1.492  1.00  0.00    -0.291 OA
BRANCH  25  27
HETATM   27  C   UNL     1      -7.411   2.040   0.677  1.00  0.00     0.044 A 
HETATM   28  C   UNL     1      -8.607   2.600   0.227  1.00  0.00     0.079 A 
HETATM   29  C   UNL     1      -9.715   1.786   0.028  1.00  0.00     0.037 A 
HETATM   30  C   UNL     1      -9.633   0.423   0.323  1.00  0.00     0.003 A 
HETATM   31  C   UNL     1      -8.455  -0.119   0.844  1.00  0.00     0.001 A 
HETATM   32  C   UNL     1      -7.339   0.693   1.036  1.00  0.00     0.018 A 
BRANCH  28  33
HETATM   33  O   UNL     1      -8.738   3.932  -0.046  1.00  0.00    -0.360 OA
HETATM   34  H   UNL     1      -8.087   4.417   0.497  1.00  0.00     0.217 HD
ENDBRANCH  28  33
ENDBRANCH  25  27
ENDBRANCH  20  25
ENDBRANCH  18  20
ENDBRANCH   1  18
TORSDOF 14
