REMARK  5 active torsions:
REMARK  status: ('A' for Active; 'I' for Inactive)
REMARK    1  A    between atoms: N_2  and  C_4 
REMARK    2  A    between atoms: C_8  and  N_9 
REMARK    3  A    between atoms: N_9  and  C_10 
REMARK    4  A    between atoms: C_10  and  O_12 
REMARK    5  A    between atoms: O_12  and  C_13 
ROOT
HETATM    1  N   UNL     1      -1.624   0.607   0.031  1.00  0.00    -0.327 N 
HETATM    2  H   UNL     1      -1.493   1.596   0.203  1.00  0.00     0.169 HD
ENDROOT
BRANCH   1   3
HETATM    3  C   UNL     1      -0.461  -0.187  -0.085  1.00  0.00     0.037 A 
HETATM    4  C   UNL     1      -0.460  -1.585  -0.097  1.00  0.00     0.029 A 
HETATM    5  C   UNL     1       0.730  -2.319  -0.098  1.00  0.00     0.005 A 
HETATM    6  C   UNL     1       1.954  -1.662  -0.095  1.00  0.00     0.036 A 
HETATM    7  C   UNL     1       1.972  -0.266  -0.099  1.00  0.00     0.105 A 
HETATM    8  C   UNL     1       0.773   0.475  -0.098  1.00  0.00     0.065 A 
BRANCH   7   9
HETATM    9  N   UNL     1       3.259   0.435  -0.085  1.00  0.00    -0.116 N 
HETATM   10  O   UNL     1       4.292  -0.251  -0.076  1.00  0.00    -0.532 OA
HETATM   11  O   UNL     1       3.248   1.678  -0.076  1.00  0.00    -0.532 OA
ENDBRANCH   7   9
ENDBRANCH   1   3
BRANCH   1  12
HETATM   12  C   UNL     1      -2.949   0.234   0.193  1.00  0.00     0.220 C 
HETATM   13  S   UNL     1      -3.966   1.314   0.953  1.00  0.00    -0.033 SA
BRANCH  12  14
HETATM   14  O   UNL     1      -3.259  -1.028  -0.203  1.00  0.00    -0.280 OA
BRANCH  14  15
HETATM   15  C   UNL     1      -4.373  -1.943  -0.129  1.00  0.00     0.128 C 
HETATM   16  C   UNL     1      -5.752  -1.588  -0.481  1.00  0.00     0.227 C 
HETATM   17  C   UNL     1      -6.701  -2.452  -0.060  1.00  0.00     0.192 C 
HETATM   18  O   UNL     1      -5.862  -0.539  -1.165  1.00  0.00    -0.283 OA
HETATM   19  O   UNL     1      -6.485  -3.676   0.530  1.00  0.00    -0.355 OA
HETATM   20  C   UNL     1      -5.198  -4.227   0.233  1.00  0.00     0.205 C 
HETATM   21  C   UNL     1      -4.101  -3.219   0.179  1.00  0.00     0.041 C 
ENDBRANCH  14  15
ENDBRANCH  12  14
ENDBRANCH   1  12
TORSDOF 5
