REMARK  4 active torsions:
REMARK  status: ('A' for Active; 'I' for Inactive)
REMARK    1  A    between atoms: N_4  and  C_5 
REMARK    2  A    between atoms: C_5  and  C_6 
REMARK    3  A    between atoms: C_6  and  C_7 
REMARK    4  A    between atoms: C_7  and  N_8 
ROOT
HETATM    1  C   UNL     1       0.809   1.588   0.000  1.00  0.00     0.073 C 
HETATM    2  C   UNL     1       0.809   0.588   0.000  1.00  0.00     0.065 A 
HETATM    3  C   UNL     1       1.544  -0.421   0.612  1.00  0.00     0.136 A 
HETATM    4  N   UNL     1       1.103  -1.587   0.056  1.00  0.00    -0.283 N 
HETATM    5  N   UNL     1       0.071  -1.372  -0.762  1.00  0.00     0.004 NA
HETATM    6  N   UNL     1      -0.114  -0.065  -0.812  1.00  0.00    -0.164 NA
ENDROOT
BRANCH   4   7
HETATM    7  C   UNL     1       1.748  -2.884   0.084  1.00  0.00     0.148 C 
BRANCH   7   8
HETATM    8  C   UNL     1       2.636  -3.068  -1.151  1.00  0.00     0.052 C 
BRANCH   8   9
HETATM    9  C   UNL     1       4.023  -3.619  -0.819  1.00  0.00     0.273 C 
BRANCH   9  10
HETATM   10  N   UNL     1       4.765  -2.815   0.167  1.00  0.00     0.080 N 
HETATM   11  C   UNL     1       5.989  -3.523   0.556  1.00  0.00     0.309 C 
HETATM   12  C   UNL     1       5.114  -1.486  -0.345  1.00  0.00     0.309 C 
ENDBRANCH   9  10
ENDBRANCH   8   9
ENDBRANCH   7   8
ENDBRANCH   4   7
TORSDOF 4
