REMARK  1 active torsions:
REMARK  status: ('A' for Active; 'I' for Inactive)
REMARK    1  A    between atoms: N_6  and  C_7 
ROOT
HETATM    1  C   UNL     1       0.809   1.588   0.000  1.00  0.00     0.173 C 
HETATM    2  N   UNL     1       0.809   0.588   0.000  1.00  0.00    -0.299 N 
HETATM    3  C   UNL     1       1.917  -0.334   0.178  1.00  0.00     0.413 C 
HETATM    4  N   UNL     1       1.333  -1.631   0.510  1.00  0.00     0.121 N 
HETATM    5  C   UNL     1      -0.045  -1.599   0.041  1.00  0.00     0.422 C 
HETATM    6  N   UNL     1      -0.345  -0.196  -0.074  1.00  0.00    -0.241 N 
HETATM    7  H   UNL     1       1.840  -2.374   0.036  1.00  0.00     0.320 HD
ENDROOT
BRANCH   6   8
HETATM    8  C   UNL     1      -1.607   0.245  -0.412  1.00  0.00     0.372 C 
HETATM    9  O   UNL     1      -2.585  -0.476  -0.592  1.00  0.00    -0.282 OA
ENDBRANCH   6   8
TORSDOF 1
