REMARK  4 active torsions:
REMARK  status: ('A' for Active; 'I' for Inactive)
REMARK    1  A    between atoms: N_1  and  C_2 
REMARK    2  A    between atoms: C_2  and  C_3 
REMARK    3  A    between atoms: C_6  and  O_7 
REMARK    4  A    between atoms: O_7  and  C_8 
ROOT
HETATM    1  C   UNL     1       0.753  -0.956  -0.163  1.00  0.00     0.062 A 
HETATM    2  C   UNL     1      -0.295  -1.432  -0.954  1.00  0.00     0.032 A 
HETATM    3  C   UNL     1      -1.545  -0.825  -0.859  1.00  0.00     0.041 A 
HETATM    4  C   UNL     1      -1.727   0.224   0.033  1.00  0.00     0.093 A 
HETATM    5  C   UNL     1      -0.624   0.670   0.742  1.00  0.00     0.154 A 
HETATM    6  N   UNL     1       0.609   0.098   0.681  1.00  0.00    -0.261 NA
ENDROOT
BRANCH   4   7
HETATM    7  O   UNL     1      -2.913   0.883   0.221  1.00  0.00    -0.305 OA
BRANCH   7   8
HETATM    8  C   UNL     1      -4.118   0.177   0.184  1.00  0.00     0.126 C 
HETATM    9  C   UNL     1      -5.286   0.841  -0.416  1.00  0.00     0.227 C 
HETATM   10  C   UNL     1      -6.463   0.187  -0.347  1.00  0.00     0.192 C 
HETATM   11  O   UNL     1      -5.033   1.967  -0.926  1.00  0.00    -0.283 OA
HETATM   12  O   UNL     1      -6.710  -1.037   0.203  1.00  0.00    -0.355 OA
HETATM   13  C   UNL     1      -5.582  -1.762   0.692  1.00  0.00     0.205 C 
HETATM   14  C   UNL     1      -4.280  -1.037   0.741  1.00  0.00     0.041 C 
ENDBRANCH   7   8
ENDBRANCH   4   7
BRANCH   1  15
HETATM   15  C   UNL     1       2.124  -1.593  -0.237  1.00  0.00     0.325 C 
BRANCH  15  16
HETATM   16  N   UNL     1       2.101  -3.060  -0.131  1.00  0.00     0.083 N 
HETATM   17  H   UNL     1       1.619  -3.297   0.736  1.00  0.00     0.313 HD
HETATM   18  H   UNL     1       3.059  -3.388  -0.023  1.00  0.00     0.313 HD
ENDBRANCH  15  16
ENDBRANCH   1  15
TORSDOF 4
