REMARK  1 active torsions:
REMARK  status: ('A' for Active; 'I' for Inactive)
REMARK    1  A    between atoms: C_3  and  S_5 
ROOT
HETATM    1  C   UNL     1       4.630  -0.876   0.039  1.00  0.00     0.021 C 
HETATM    2  C   UNL     1       3.551  -0.349   0.110  1.00  0.00    -0.028 C 
HETATM    3  C   UNL     1       2.250   0.273   0.183  1.00  0.00     0.261 C 
HETATM    4  O   UNL     1       2.136   1.489   0.137  1.00  0.00    -0.271 OA
ENDROOT
BRANCH   3   5
HETATM    5  S   UNL     1       0.902  -0.837   0.320  1.00  0.00    -0.083 SA
HETATM    6  C   UNL     1      -0.471   0.260  -0.091  1.00  0.00     0.099 C 
ENDBRANCH   3   5
TORSDOF 1
