REMARK  4 active torsions:
REMARK  status: ('A' for Active; 'I' for Inactive)
REMARK    1  A    between atoms: N_2  and  C_3 
REMARK    2  A    between atoms: C_7  and  C_8 
REMARK    3  A    between atoms: C_8  and  O_10 
REMARK    4  A    between atoms: O_10  and  C_11 
ROOT
HETATM    1  C   UNL     1       1.864   0.182  -0.075  1.00  0.00     0.323 C 
HETATM    2  O   UNL     1       2.896   0.763  -0.433  1.00  0.00    -0.257 OA
ENDROOT
BRANCH   1   3
HETATM    3  C   UNL     1       1.954  -1.153   0.517  1.00  0.00     0.209 A 
HETATM    4  C   UNL     1       3.090  -2.010   0.431  1.00  0.00     0.190 A 
HETATM    5  N   UNL     1       2.843  -3.141   1.093  1.00  0.00    -0.085 NA
HETATM    6  O   UNL     1       1.563  -2.989   1.606  1.00  0.00    -0.104 OA
HETATM    7  N   UNL     1       1.021  -1.767   1.256  1.00  0.00    -0.095 NA
BRANCH   4   8
HETATM    8  N   UNL     1       4.230  -1.708  -0.252  1.00  0.00    -0.375 N 
HETATM    9  C   UNL     1       5.461  -2.410   0.027  1.00  0.00     0.148 C 
HETATM   10  H   UNL     1       4.355  -0.725  -0.512  1.00  0.00     0.160 HD
ENDBRANCH   4   8
ENDBRANCH   1   3
BRANCH   1  11
HETATM   11  O   UNL     1       0.651   0.777  -0.310  1.00  0.00    -0.270 OA
BRANCH  11  12
HETATM   12  C   UNL     1      -0.630   0.186  -0.178  1.00  0.00     0.129 C 
HETATM   13  C   UNL     1      -1.586   0.839   0.714  1.00  0.00     0.227 C 
HETATM   14  C   UNL     1      -2.864   0.426   0.627  1.00  0.00     0.192 C 
HETATM   15  O   UNL     1      -1.073   1.729   1.445  1.00  0.00    -0.283 OA
HETATM   16  O   UNL     1      -3.363  -0.570  -0.171  1.00  0.00    -0.355 OA
HETATM   17  C   UNL     1      -2.395  -1.409  -0.811  1.00  0.00     0.205 C 
HETATM   18  C   UNL     1      -1.014  -0.854  -0.933  1.00  0.00     0.041 C 
ENDBRANCH  11  12
ENDBRANCH   1  11
TORSDOF 4
