REMARK  14 active torsions:
REMARK  status: ('A' for Active; 'I' for Inactive)
REMARK    1  A    between atoms: N_2  and  C_3 
REMARK    2  A    between atoms: C_5  and  C_6 
REMARK    3  A    between atoms: C_6  and  O_7 
REMARK    4  A    between atoms: C_6  and  C_8 
REMARK    5  A    between atoms: C_6  and  C_21 
REMARK    6  A    between atoms: C_8  and  C_9 
REMARK    7  A    between atoms: C_8  and  C_12 
REMARK    8  A    between atoms: C_9  and  C_10 
REMARK    9  A    between atoms: C_10  and  O_11 
REMARK   10  A    between atoms: C_12  and  C_14 
REMARK   11  A    between atoms: C_21  and  O_22 
REMARK   12  A    between atoms: C_21  and  C_23 
REMARK   13  A    between atoms: C_23  and  C_25 
REMARK   14  A    between atoms: C_25  and  C_26 
ROOT
HETATM    1  C   UNL     1      -3.977  -1.567   0.058  1.00  0.00     0.145 C 
ENDROOT
BRANCH   1   2
HETATM    2  C   UNL     1      -2.762  -0.585   0.142  1.00  0.00     0.077 C 
HETATM    3  C   UNL     1      -1.535  -1.151   0.554  1.00  0.00     0.080 C 
HETATM    4  C   UNL     1      -0.360  -0.716  -0.034  1.00  0.00     0.126 C 
HETATM    5  N   UNL     1      -0.358   0.399  -0.773  1.00  0.00    -0.225 NA
HETATM    6  C   UNL     1      -1.558   0.983  -0.992  1.00  0.00     0.235 C 
HETATM    7  N   UNL     1      -2.767   0.527  -0.606  1.00  0.00    -0.243 NA
BRANCH   4   8
HETATM    8  N   UNL     1       0.840  -1.454   0.000  1.00  0.00    -0.379 N 
HETATM    9  C   UNL     1       0.840  -2.424   0.000  1.00  0.00     0.147 C 
HETATM   10  H   UNL     1       1.507  -0.865  -0.500  1.00  0.00     0.160 HD
ENDBRANCH   4   8
ENDBRANCH   1   2
BRANCH   1  11
HETATM   11  O   UNL     1      -3.757  -2.393   1.249  1.00  0.00    -0.379 OA
HETATM   12  H   UNL     1      -4.144  -1.933   2.018  1.00  0.00     0.211 HD
ENDBRANCH   1  11
BRANCH   1  13
HETATM   13  C   UNL     1      -5.498  -1.149   0.198  1.00  0.00     0.106 C 
BRANCH  13  14
HETATM   14  C   UNL     1      -6.320  -2.483   0.162  1.00  0.00     0.042 C 
BRANCH  14  15
HETATM   15  C   UNL     1      -7.836  -2.448   0.238  1.00  0.00     0.165 C 
BRANCH  15  16
HETATM   16  O   UNL     1      -8.292  -3.808   0.350  1.00  0.00    -0.401 OA
HETATM   17  H   UNL     1      -7.925  -4.286  -0.416  1.00  0.00     0.209 HD
ENDBRANCH  15  16
ENDBRANCH  14  15
ENDBRANCH  13  14
BRANCH  13  18
HETATM   18  C   UNL     1      -6.003  -0.178  -0.870  1.00  0.00     0.171 C 
HETATM   19  O   UNL     1      -6.026  -0.560  -2.041  1.00  0.00    -0.292 OA
BRANCH  18  20
HETATM   20  C   UNL     1      -6.401   1.234  -0.496  1.00  0.00     0.060 A 
HETATM   21  C   UNL     1      -7.497   1.890  -1.132  1.00  0.00     0.185 A 
HETATM   22  C   UNL     1      -7.602   3.275  -0.854  1.00  0.00     0.056 A 
HETATM   23  O   UNL     1      -8.359   1.330  -1.888  1.00  0.00    -0.287 OA
HETATM   24  C   UNL     1      -6.759   3.959   0.027  1.00  0.00     0.004 A 
HETATM   25  C   UNL     1      -5.765   3.267   0.696  1.00  0.00     0.001 A 
HETATM   26  C   UNL     1      -5.584   1.911   0.433  1.00  0.00     0.019 A 
ENDBRANCH  18  20
ENDBRANCH  13  18
ENDBRANCH   1  13
BRANCH   1  27
HETATM   27  C   UNL     1      -3.601  -2.406  -1.258  1.00  0.00     0.229 C 
BRANCH  27  28
HETATM   28  O   UNL     1      -4.407  -2.378  -2.431  1.00  0.00    -0.385 OA
HETATM   29  H   UNL     1      -5.033  -1.620  -2.409  1.00  0.00     0.210 HD
ENDBRANCH  27  28
BRANCH  27  30
HETATM   30  C   UNL     1      -3.364  -3.885  -0.969  1.00  0.00     0.165 C 
HETATM   31  O   UNL     1      -4.255  -4.689  -0.689  1.00  0.00    -0.295 OA
BRANCH  30  32
HETATM   32  C   UNL     1      -1.955  -4.377  -1.144  1.00  0.00     0.159 C 
BRANCH  32  33
HETATM   33  C   UNL     1      -1.352  -4.936   0.109  1.00  0.00     0.130 C 
HETATM   34  C   UNL     1      -0.435  -6.116  -0.063  1.00  0.00     0.091 C 
HETATM   35  O   UNL     1      -1.502  -4.437   1.216  1.00  0.00    -0.298 OA
ENDBRANCH  32  33
ENDBRANCH  30  32
ENDBRANCH  27  30
ENDBRANCH   1  27
TORSDOF 14
