REMARK  3 active torsions:
REMARK  status: ('A' for Active; 'I' for Inactive)
REMARK    1  A    between atoms: C_2  and  O_3 
REMARK    2  A    between atoms: O_3  and  C_4 
REMARK    3  A    between atoms: C_4  and  C_5 
ROOT
HETATM    1  C   UNL     1       1.165   0.500   0.508  1.00  0.00     0.255 C 
HETATM    2  C   UNL     1       2.175  -0.415  -0.197  1.00  0.00     0.113 C 
HETATM    3  S   UNL     1       1.483  -2.070  -0.047  1.00  0.00    -0.137 SA
HETATM    4  C   UNL     1      -0.194  -1.437   0.031  1.00  0.00     0.344 C 
HETATM    5  N   UNL     1      -0.154  -0.144   0.674  1.00  0.00     0.100 N 
HETATM    6  H   UNL     1      -0.895   0.466   0.332  1.00  0.00     0.317 HD
ENDROOT
BRANCH   1   7
HETATM    7  C   UNL     1       1.086   1.885  -0.176  1.00  0.00     0.214 C 
BRANCH   7   8
HETATM    8  O   UNL     1      -0.214   2.460   0.059  1.00  0.00    -0.326 OA
BRANCH   8   9
HETATM    9  C   UNL     1      -0.284   3.807  -0.030  1.00  0.00     0.398 C 
HETATM   10  O   UNL     1       0.633   4.570  -0.274  1.00  0.00    -0.276 OA
ENDBRANCH   8   9
ENDBRANCH   7   8
ENDBRANCH   1   7
TORSDOF 3
