REMARK  2 active torsions:
REMARK  status: ('A' for Active; 'I' for Inactive)
REMARK       I    between atoms: C_2  and  N_4 
REMARK    1  A    between atoms: N_4  and  C_5 
REMARK    2  A    between atoms: C_9  and  N_10 
ROOT
HETATM    1  C   UNL     1       3.384   0.979  -0.532  1.00  0.00     0.070 A 
HETATM    2  C   UNL     1       4.693   0.467  -0.372  1.00  0.00     0.064 A 
HETATM    3 CL   UNL     1       6.064   1.534  -0.365  1.00  0.00    -0.082 Cl
HETATM    4  C   UNL     1       4.931  -0.884  -0.141  1.00  0.00     0.064 A 
HETATM    5  C   UNL     1       3.866  -1.792  -0.083  1.00  0.00     0.132 A 
HETATM    6  C   UNL     1       2.557  -1.286  -0.189  1.00  0.00     0.079 A 
HETATM    7  N   UNL     1       1.353  -1.956  -0.121  1.00  0.00    -0.350 N 
HETATM    8  C   UNL     1       0.323  -1.081  -0.186  1.00  0.00     0.094 A 
HETATM    9  C   UNL     1       0.822   0.190  -0.331  1.00  0.00     0.012 A 
HETATM   10  C   UNL     1       2.269   0.085  -0.377  1.00  0.00     0.032 A 
HETATM   11  C   UNL     1      -0.172   1.300  -0.320  1.00  0.00     0.216 C 
HETATM   12  O   UNL     1      -1.573   0.906  -0.446  1.00  0.00    -0.354 OA
HETATM   13  C   UNL     1      -1.884  -0.419  -0.225  1.00  0.00     0.192 C 
HETATM   14  C   UNL     1      -1.038  -1.460  -0.087  1.00  0.00     0.220 C 
HETATM   15  O   UNL     1      -1.214  -2.689   0.098  1.00  0.00    -0.284 OA
HETATM   16  H   UNL     1       1.191  -2.948   0.014  1.00  0.00     0.166 HD
ENDROOT
BRANCH   1  17
HETATM   17  N   UNL     1       3.233   2.384  -0.805  1.00  0.00    -0.325 N 
HETATM   18  C   UNL     1       2.407   3.103   0.000  1.00  0.00     0.218 C 
HETATM   19  C   UNL     1       2.108   4.024   0.000  1.00  0.00     0.117 C 
HETATM   20  O   UNL     1       2.074   2.540   1.070  1.00  0.00    -0.274 OA
HETATM   21  H   UNL     1       4.107   2.854  -1.024  1.00  0.00     0.169 HD
ENDBRANCH   1  17
BRANCH   5  22
HETATM   22  N   UNL     1       4.167  -3.220   0.087  1.00  0.00    -0.113 N 
HETATM   23  O   UNL     1       3.230  -4.021   0.116  1.00  0.00    -0.532 OA
HETATM   24  O   UNL     1       5.367  -3.547   0.173  1.00  0.00    -0.532 OA
ENDBRANCH   5  22
TORSDOF 2
