REMARK  3 active torsions:
REMARK  status: ('A' for Active; 'I' for Inactive)
REMARK    1  A    between atoms: C_5  and  C_6 
REMARK    2  A    between atoms: C_6  and  N_7 
REMARK    3  A    between atoms: C_6  and  C_13 
ROOT
HETATM    1  C   UNL     1       3.201  -1.971  -0.247  1.00  0.00     0.246 C 
ENDROOT
BRANCH   1   2
HETATM    2  C   UNL     1       1.896  -1.177  -0.360  1.00  0.00    -0.025 A 
HETATM    3  C   UNL     1       1.637  -0.327  -1.452  1.00  0.00     0.010 A 
HETATM    4  C   UNL     1       0.601   0.605  -1.398  1.00  0.00     0.007 A 
HETATM    5  C   UNL     1      -0.220   0.692  -0.272  1.00  0.00    -0.062 A 
HETATM    6  C   UNL     1      -1.249   1.782  -0.180  1.00  0.00     0.048 C 
HETATM    7  C   UNL     1      -0.019  -0.200   0.785  1.00  0.00     0.007 A 
HETATM    8  C   UNL     1       1.028  -1.125   0.744  1.00  0.00     0.010 A 
ENDBRANCH   1   2
BRANCH   1   9
HETATM    9  N   UNL     1       4.264  -1.019   0.083  1.00  0.00    -0.265 N 
HETATM   10  N   UNL     1       4.457  -0.683   1.377  1.00  0.00     0.005 NA
HETATM   11  N   UNL     1       4.901   0.567   1.399  1.00  0.00    -0.164 NA
HETATM   12  C   UNL     1       5.067   0.983   0.107  1.00  0.00     0.065 C 
HETATM   13  C   UNL     1       4.811  -0.071  -0.742  1.00  0.00     0.137 C 
HETATM   14  C   UNL     1       5.363   2.388  -0.228  1.00  0.00     0.073 C 
ENDBRANCH   1   9
BRANCH   1  15
HETATM   15  C   UNL     1       3.567  -2.847  -1.431  1.00  0.00     0.413 C 
HETATM   16  F   UNL     1       3.726  -2.161  -2.585  1.00  0.00    -0.168 F 
HETATM   17  F   UNL     1       4.724  -3.518  -1.207  1.00  0.00    -0.168 F 
HETATM   18  F   UNL     1       2.615  -3.786  -1.655  1.00  0.00    -0.168 F 
ENDBRANCH   1  15
TORSDOF 3
