REMARK  4 active torsions:
REMARK  status: ('A' for Active; 'I' for Inactive)
REMARK    1  A    between atoms: C_2  and  C_3 
REMARK    2  A    between atoms: C_3  and  C_6 
REMARK    3  A    between atoms: C_6  and  C_7 
REMARK    4  A    between atoms: C_7  and  S_8 
ROOT
HETATM    1  C   UNL     1       3.798   0.648  -1.312  1.00  0.00     0.244 C 
HETATM    2  F   UNL     1       4.891   1.038  -2.034  1.00  0.00    -0.206 F 
HETATM    3  F   UNL     1       3.285  -0.415  -1.970  1.00  0.00    -0.206 F 
ENDROOT
BRANCH   1   4
HETATM    4  C   UNL     1       4.289   0.277   0.089  1.00  0.00     0.074 C 
HETATM    5  C   UNL     1       5.102  -1.002   0.100  1.00  0.00     0.011 C 
ENDBRANCH   1   4
BRANCH   1   6
HETATM    6  C   UNL     1       2.805   1.799  -1.330  1.00  0.00     0.086 C 
BRANCH   6   7
HETATM    7  C   UNL     1       1.340   1.478  -1.024  1.00  0.00     0.045 C 
BRANCH   7   8
HETATM    8  S   UNL     1       1.000   0.000   0.000  1.00  0.00    -0.294 SA
HETATM    9  C   UNL     1       0.000   0.000   0.000  1.00  0.00     0.247 C 
ENDBRANCH   7   8
ENDBRANCH   6   7
ENDBRANCH   1   6
TORSDOF 4
