REMARK  2 active torsions:
REMARK  status: ('A' for Active; 'I' for Inactive)
REMARK    1  A    between atoms: S_2  and  C_3 
REMARK    2  A    between atoms: C_3  and  C_4 
ROOT
HETATM    1  C   UNL     1       0.754   0.279   0.124  1.00  0.00     0.057 C 
HETATM    2  C   UNL     1      -0.117  -0.604  -0.376  1.00  0.00     0.264 C 
HETATM    3  F   UNL     1      -1.412  -0.275  -0.539  1.00  0.00    -0.173 F 
HETATM    4  F   UNL     1       0.312  -1.839  -0.707  1.00  0.00    -0.173 F 
ENDROOT
BRANCH   1   5
HETATM    5  C   UNL     1       0.393   1.658   0.556  1.00  0.00     0.106 C 
BRANCH   5   6
HETATM    6  S   UNL     1       1.204   2.906  -0.487  1.00  0.00    -0.170 SA
HETATM    7  C   UNL     1       2.942   2.607  -0.073  1.00  0.00     0.090 C 
ENDBRANCH   5   6
ENDBRANCH   1   5
TORSDOF 2
