REMARK  2 active torsions:
REMARK  status: ('A' for Active; 'I' for Inactive)
REMARK    1  A    between atoms: N_4  and  C_5 
REMARK    2  A    between atoms: C_5  and  C_6 
REMARK       I    between atoms: C_6  and  N_8 
ROOT
HETATM    1  C   UNL     1      -4.540   0.528   0.443  1.00  0.00     0.243 C 
HETATM    2  O   UNL     1      -5.400   1.072   1.157  1.00  0.00    -0.271 OA
HETATM    3  N   UNL     1      -4.747  -0.750  -0.119  1.00  0.00    -0.316 N 
HETATM    4  C   UNL     1      -3.629  -1.612  -0.514  1.00  0.00     0.132 C 
HETATM    5  C   UNL     1      -3.955  -2.992  -1.055  1.00  0.00     0.025 C 
HETATM    6  C   UNL     1      -4.937  -3.664  -0.126  1.00  0.00     0.042 C 
HETATM    7  C   UNL     1      -6.159  -2.795  -0.057  1.00  0.00    -0.031 A 
HETATM    8  C   UNL     1      -7.416  -3.413   0.030  1.00  0.00     0.009 A 
HETATM    9  C   UNL     1      -8.576  -2.648   0.069  1.00  0.00     0.001 A 
HETATM   10  C   UNL     1      -8.485  -1.262   0.025  1.00  0.00     0.002 A 
HETATM   11  C   UNL     1      -7.233  -0.641  -0.034  1.00  0.00     0.030 A 
HETATM   12  C   UNL     1      -6.046  -1.387  -0.051  1.00  0.00     0.043 A 
ENDROOT
BRANCH   1  13
HETATM   13  C   UNL     1      -3.310   1.396   0.165  1.00  0.00     0.249 C 
BRANCH  13  14
HETATM   14  N   UNL     1      -2.023   0.767   0.005  1.00  0.00    -0.274 N 
HETATM   15  C   UNL     1      -1.330  -0.002   0.899  1.00  0.00     0.136 C 
HETATM   16  C   UNL     1      -0.463  -0.707   0.088  1.00  0.00     0.065 C 
HETATM   17  C   UNL     1       0.256  -1.964   0.367  1.00  0.00     0.073 C 
HETATM   18  N   UNL     1      -0.477  -0.156  -1.167  1.00  0.00    -0.164 NA
HETATM   19  N   UNL     1      -1.402   0.788  -1.190  1.00  0.00     0.005 NA
ENDBRANCH  13  14
ENDBRANCH   1  13
TORSDOF 2
