REMARK  3 active torsions:
REMARK  status: ('A' for Active; 'I' for Inactive)
REMARK    1  A    between atoms: C_2  and  O_3 
REMARK    2  A    between atoms: C_2  and  C_6 
REMARK    3  A    between atoms: O_3  and  C_4 
ROOT
HETATM    1  C   UNL     1       0.513   0.357   0.343  1.00  0.00     0.124 C 
HETATM    2  C   UNL     1      -0.633   0.302  -0.698  1.00  0.00     0.139 C 
HETATM    3  N   UNL     1      -0.265   1.664  -1.081  1.00  0.00    -0.360 N 
HETATM    4  C   UNL     1       0.598   1.835  -0.050  1.00  0.00     0.226 C 
HETATM    5  O   UNL     1       1.148   2.824   0.370  1.00  0.00    -0.273 OA
HETATM    6  H   UNL     1      -0.836   2.440  -1.389  1.00  0.00     0.162 HD
ENDROOT
BRANCH   1   7
HETATM    7  C   UNL     1       1.798  -0.442   0.178  1.00  0.00     0.141 C 
HETATM    8  C   UNL     1       1.506  -1.933   0.303  1.00  0.00     0.041 C 
BRANCH   7   9
HETATM    9  O   UNL     1       2.386  -0.239  -1.120  1.00  0.00    -0.322 OA
BRANCH   9  10
HETATM   10  C   UNL     1       3.516   0.507  -1.173  1.00  0.00     0.398 C 
HETATM   11  O   UNL     1       4.246   0.561  -2.151  1.00  0.00    -0.276 OA
ENDBRANCH   9  10
ENDBRANCH   7   9
ENDBRANCH   1   7
TORSDOF 3
