REMARK  8 active torsions:
REMARK  status: ('A' for Active; 'I' for Inactive)
REMARK    1  A    between atoms: C_2  and  C_4 
REMARK    2  A    between atoms: C_4  and  O_5 
REMARK    3  A    between atoms: C_4  and  C_6 
REMARK    4  A    between atoms: C_6  and  N_7 
REMARK    5  A    between atoms: N_7  and  C_8 
REMARK    6  A    between atoms: C_8  and  C_9 
REMARK    7  A    between atoms: C_9  and  S_12 
REMARK    8  A    between atoms: S_12  and  C_13 
ROOT
HETATM    1  N   UNL     1      -1.967   0.319  -1.564  1.00  0.00     0.087 N 
HETATM    2  H   UNL     1      -1.108  -0.223  -1.406  1.00  0.00     0.316 HD
ENDROOT
BRANCH   1   3
HETATM    3  C   UNL     1      -3.058  -0.279  -0.773  1.00  0.00     0.301 C 
BRANCH   3   4
HETATM    4  C   UNL     1      -4.529   0.162  -1.047  1.00  0.00     0.149 C 
BRANCH   4   5
HETATM    5  C   UNL     1      -5.200   0.919   0.133  1.00  0.00     0.008 C 
HETATM    6  C   UNL     1      -4.545   2.261   0.427  1.00  0.00     0.012 C 
HETATM    7  C   UNL     1      -6.696   1.162  -0.088  1.00  0.00     0.012 C 
ENDBRANCH   4   5
BRANCH   4   8
HETATM    8  O   UNL     1      -5.284  -1.044  -1.274  1.00  0.00    -0.393 OA
HETATM    9  H   UNL     1      -6.127  -0.792  -1.686  1.00  0.00     0.210 HD
ENDBRANCH   4   8
ENDBRANCH   3   4
ENDBRANCH   1   3
BRANCH   1  10
HETATM   10  C   UNL     1      -1.670   1.737  -1.362  1.00  0.00     0.289 C 
BRANCH  10  11
HETATM   11  C   UNL     1      -0.725   2.250  -0.206  1.00  0.00     0.034 C 
HETATM   12  C   UNL     1       0.747   2.354  -0.651  1.00  0.00     0.029 C 
HETATM   13  C   UNL     1      -1.163   3.701   0.127  1.00  0.00     0.029 C 
BRANCH  11  14
HETATM   14  S   UNL     1      -0.796   1.333   1.394  1.00  0.00    -0.090 SA
BRANCH  14  15
HETATM   15  C   UNL     1      -0.130  -0.245   1.013  1.00  0.00     0.304 C 
HETATM   16  O   UNL     1       0.263  -0.582  -0.101  1.00  0.00    -0.295 OA
ENDBRANCH  14  15
ENDBRANCH  11  14
ENDBRANCH  10  11
ENDBRANCH   1  10
TORSDOF 8
