REMARK  3 active torsions:
REMARK  status: ('A' for Active; 'I' for Inactive)
REMARK    1  A    between atoms: N_1  and  C_2 
REMARK    2  A    between atoms: C_2  and  C_3 
REMARK    3  A    between atoms: N_5  and  C_6 
ROOT
HETATM    1  C   UNL     1      -0.165  -1.008  -0.364  1.00  0.00     0.120 C 
HETATM    2  C   UNL     1      -1.568  -1.084   0.216  1.00  0.00     0.169 C 
HETATM    3  N   UNL     1      -1.925   0.304   0.381  1.00  0.00    -0.275 N 
HETATM    4  N   UNL     1      -0.808   1.136   0.353  1.00  0.00    -0.167 NA
HETATM    5  N   UNL     1       0.354   0.322   0.045  1.00  0.00    -0.235 NA
HETATM    6  H   UNL     1      -0.968   1.881  -0.339  1.00  0.00     0.167 HD
HETATM    7  H   UNL     1       0.905   0.225   0.901  1.00  0.00     0.142 HD
ENDROOT
BRANCH   1   8
HETATM    8  C   UNL     1       0.744  -2.162   0.095  1.00  0.00     0.289 C 
BRANCH   8   9
HETATM    9  N   UNL     1       0.158  -3.481  -0.146  1.00  0.00     0.079 N 
HETATM   10  H   UNL     1       0.014  -3.622  -1.146  1.00  0.00     0.312 HD
HETATM   11  H   UNL     1       0.826  -4.199   0.141  1.00  0.00     0.312 HD
ENDBRANCH   8   9
ENDBRANCH   1   8
BRANCH   3  12
HETATM   12  C   UNL     1      -3.189   0.817   0.181  1.00  0.00     0.367 C 
HETATM   13  O   UNL     1      -3.476   1.999   0.047  1.00  0.00    -0.282 OA
ENDBRANCH   3  12
TORSDOF 3
