REMARK  4 active torsions:
REMARK  status: ('A' for Active; 'I' for Inactive)
REMARK    1  A    between atoms: O_2  and  C_3 
REMARK    2  A    between atoms: C_6  and  C_7 
REMARK    3  A    between atoms: C_7  and  O_8 
REMARK    4  A    between atoms: O_8  and  C_9 
ROOT
HETATM    1  C   UNL     1       0.321  -0.790  -0.410  1.00  0.00     0.127 C 
HETATM    2  C   UNL     1       0.319   0.657   0.158  1.00  0.00     0.033 C 
HETATM    3  C   UNL     1       1.852   0.569   0.196  1.00  0.00     0.012 C 
HETATM    4  C   UNL     1       1.679  -0.971   0.335  1.00  0.00     0.039 C 
ENDROOT
BRANCH   4   5
HETATM    5  C   UNL     1       2.615  -1.966  -0.329  1.00  0.00     0.185 C 
BRANCH   5   6
HETATM    6  O   UNL     1       3.967  -1.732   0.088  1.00  0.00    -0.328 OA
BRANCH   6   7
HETATM    7  C   UNL     1       4.649  -0.799  -0.591  1.00  0.00     0.398 C 
HETATM    8  O   UNL     1       5.820  -0.532  -0.391  1.00  0.00    -0.276 OA
ENDBRANCH   6   7
ENDBRANCH   5   6
ENDBRANCH   4   5
BRANCH   1   9
HETATM    9  O   UNL     1      -0.707  -1.707   0.000  1.00  0.00    -0.390 OA
HETATM   10  C   UNL     1      -1.673  -1.448   0.000  1.00  0.00     0.202 C 
ENDBRANCH   1   9
TORSDOF 4
