REMARK  4 active torsions:
REMARK  status: ('A' for Active; 'I' for Inactive)
REMARK    1  A    between atoms: C_2  and  N_3 
REMARK    2  A    between atoms: C_2  and  C_4 
REMARK    3  A    between atoms: C_4  and  O_5 
REMARK    4  A    between atoms: O_5  and  C_6 
ROOT
HETATM    1  C   UNL     1       3.464  -1.000   0.000  1.00  0.00     0.044 C 
HETATM    2  C   UNL     1       3.464   0.000   0.000  1.00  0.00     0.238 C 
ENDROOT
BRANCH   2   3
HETATM    3  N   UNL     1       4.470   0.713  -0.858  1.00  0.00     0.084 N 
HETATM    4  H   UNL     1       5.411   0.377  -0.644  1.00  0.00     0.313 HD
HETATM    5  H   UNL     1       4.476   1.707  -0.625  1.00  0.00     0.313 HD
ENDBRANCH   2   3
BRANCH   2   6
HETATM    6  C   UNL     1       2.080   0.667  -0.325  1.00  0.00     0.213 C 
BRANCH   6   7
HETATM    7  O   UNL     1       1.049   0.136   0.524  1.00  0.00    -0.326 OA
BRANCH   7   8
HETATM    8  C   UNL     1      -0.171   0.696   0.356  1.00  0.00     0.398 C 
HETATM    9  O   UNL     1      -1.166   0.353   0.972  1.00  0.00    -0.276 OA
ENDBRANCH   7   8
ENDBRANCH   6   7
ENDBRANCH   2   6
TORSDOF 4
