REMARK  2 active torsions:
REMARK  status: ('A' for Active; 'I' for Inactive)
REMARK    1  A    between atoms: S_2  and  C_3 
REMARK    2  A    between atoms: C_3  and  C_4 
ROOT
HETATM    1  C   UNL     1       0.866   2.500   0.000  1.00  0.00     0.190 A 
HETATM    2  C   UNL     1       0.000   3.000   0.000  1.00  0.00     0.054 A 
HETATM    3  O   UNL     1       0.699   1.432  -0.949  1.00  0.00    -0.315 OA
HETATM    4  C   UNL     1       0.000   1.000   0.000  1.00  0.00     0.200 A 
HETATM    5  C   UNL     1      -0.866   1.500   0.000  1.00  0.00     0.111 A 
HETATM    6  O   UNL     1       0.273  -0.044   0.594  1.00  0.00    -0.274 OA
ENDROOT
BRANCH   1   7
HETATM    7  C   UNL     1       1.624   2.695   1.329  1.00  0.00     0.078 C 
BRANCH   7   8
HETATM    8  S   UNL     1       2.598   2.500   0.000  1.00  0.00    -0.292 SA
HETATM    9  C   UNL     1       2.598   1.500   0.000  1.00  0.00     0.248 C 
ENDBRANCH   7   8
ENDBRANCH   1   7
TORSDOF 2
