REMARK  15 active torsions:
REMARK  status: ('A' for Active; 'I' for Inactive)
REMARK    1  A    between atoms: C_2  and  C_3 
REMARK    2  A    between atoms: C_3  and  C_4 
REMARK       I    between atoms: C_4  and  N_6 
REMARK    3  A    between atoms: N_6  and  C_8 
REMARK    4  A    between atoms: C_8  and  C_10 
REMARK    5  A    between atoms: N_14  and  C_15 
REMARK    6  A    between atoms: C_15  and  C_16 
REMARK    7  A    between atoms: C_16  and  C_17 
REMARK    8  A    between atoms: C_17  and  C_18 
REMARK    9  A    between atoms: C_17  and  C_27 
REMARK   10  A    between atoms: C_18  and  C_20 
REMARK   11  A    between atoms: C_27  and  C_29 
REMARK   12  A    between atoms: C_29  and  O_30 
REMARK   13  A    between atoms: C_29  and  C_31 
REMARK   14  A    between atoms: C_31  and  C_33 
REMARK   15  A    between atoms: C_33  and  C_34 
ROOT
HETATM    1  C   UNL     1       0.216  -1.953   0.325  1.00  0.00     0.135 C 
ENDROOT
BRANCH   1   2
HETATM    2  C   UNL     1       1.735  -2.013   0.510  1.00  0.00     0.042 C 
BRANCH   2   3
HETATM    3  C   UNL     1       2.406  -1.073   1.509  1.00  0.00     0.154 C 
BRANCH   3   4
HETATM    4  N   UNL     1       3.860  -1.222   1.363  1.00  0.00    -0.252 N 
HETATM    5  C   UNL     1       4.820  -0.530   0.626  1.00  0.00     0.073 C 
HETATM    6  C   UNL     1       5.788  -1.512   0.454  1.00  0.00     0.171 C 
HETATM    7  N   UNL     1       5.497  -2.637   1.144  1.00  0.00    -0.142 NA
HETATM    8  N   UNL     1       4.339  -2.438   1.737  1.00  0.00    -0.066 NA
BRANCH   5   9
HETATM    9  C   UNL     1       4.748   0.809  -0.071  1.00  0.00     0.136 C 
HETATM   10  C   UNL     1       3.311   1.327  -0.241  1.00  0.00     0.039 C 
BRANCH   9  11
HETATM   11  N   UNL     1       5.631   1.912   0.450  1.00  0.00    -0.346 N 
HETATM   12  C   UNL     1       6.718   1.922   1.314  1.00  0.00     0.220 C 
HETATM   13  O   UNL     1       6.934   2.904   2.028  1.00  0.00    -0.273 OA
HETATM   14  C   UNL     1       5.407   3.229  -0.147  1.00  0.00     0.153 C 
BRANCH  12  15
HETATM   15  C   UNL     1       7.765   0.834   1.282  1.00  0.00     0.103 C 
BRANCH  15  16
HETATM   16  C   UNL     1       8.328   0.609  -0.122  1.00  0.00     0.005 C 
HETATM   17  C   UNL     1       9.283  -0.576  -0.175  1.00  0.00     0.005 C 
ENDBRANCH  15  16
ENDBRANCH  12  15
ENDBRANCH   9  11
ENDBRANCH   5   9
ENDBRANCH   3   4
ENDBRANCH   2   3
ENDBRANCH   1   2
BRANCH   1  18
HETATM   18  C   UNL     1      -0.206  -1.006  -0.786  1.00  0.00     0.174 C 
HETATM   19  O   UNL     1       0.388  -0.969  -1.867  1.00  0.00    -0.291 OA
BRANCH  18  20
HETATM   20  C   UNL     1      -1.547  -0.398  -0.622  1.00  0.00     0.060 A 
HETATM   21  C   UNL     1      -1.702   0.738   0.203  1.00  0.00     0.185 A 
HETATM   22  C   UNL     1      -3.050   1.103   0.406  1.00  0.00     0.056 A 
HETATM   23  O   UNL     1      -0.733   1.370   0.744  1.00  0.00    -0.287 OA
HETATM   24  C   UNL     1      -4.140   0.383  -0.118  1.00  0.00     0.004 A 
HETATM   25  C   UNL     1      -3.924  -0.732  -0.915  1.00  0.00     0.001 A 
HETATM   26  C   UNL     1      -2.619  -1.116  -1.187  1.00  0.00     0.019 A 
ENDBRANCH  18  20
ENDBRANCH   1  18
BRANCH   1  27
HETATM   27  C   UNL     1      -0.238  -3.367  -0.080  1.00  0.00     0.174 C 
HETATM   28  O   UNL     1      -1.133  -3.955   0.531  1.00  0.00    -0.294 OA
BRANCH  27  29
HETATM   29  C   UNL     1       0.462  -4.009  -1.299  1.00  0.00     0.258 C 
BRANCH  29  30
HETATM   30  O   UNL     1      -0.071  -3.522  -2.521  1.00  0.00    -0.380 OA
HETATM   31  H   UNL     1       0.212  -2.590  -2.623  1.00  0.00     0.211 HD
ENDBRANCH  29  30
BRANCH  29  32
HETATM   32  C   UNL     1       0.499  -5.547  -1.252  1.00  0.00     0.169 C 
HETATM   33  O   UNL     1       0.271  -6.249  -2.244  1.00  0.00    -0.294 OA
BRANCH  32  34
HETATM   34  C   UNL     1       0.940  -6.224   0.021  1.00  0.00     0.159 C 
BRANCH  34  35
HETATM   35  C   UNL     1       2.316  -5.849   0.507  1.00  0.00     0.130 C 
HETATM   36  C   UNL     1       3.505  -6.212  -0.343  1.00  0.00     0.091 C 
HETATM   37  O   UNL     1       2.461  -5.335   1.616  1.00  0.00    -0.298 OA
ENDBRANCH  34  35
ENDBRANCH  32  34
ENDBRANCH  29  32
ENDBRANCH  27  29
ENDBRANCH   1  27
TORSDOF 15
