REMARK  3 active torsions:
REMARK  status: ('A' for Active; 'I' for Inactive)
REMARK    1  A    between atoms: S_2  and  C_3 
REMARK       I    between atoms: C_3  and  N_5 
REMARK    2  A    between atoms: N_5  and  C_6 
REMARK    3  A    between atoms: C_6  and  C_7 
ROOT
HETATM    1  C   UNL     1      -2.203  -0.122   0.096  1.00  0.00    -0.038 A 
HETATM    2  C   UNL     1      -1.945  -1.459  -0.286  1.00  0.00     0.012 A 
HETATM    3  C   UNL     1      -0.636  -1.952  -0.355  1.00  0.00     0.040 A 
HETATM    4  C   UNL     1       0.394  -1.091  -0.041  1.00  0.00     0.105 A 
HETATM    5  C   UNL     1       0.155   0.200   0.359  1.00  0.00     0.105 A 
HETATM    6  C   UNL     1      -1.124   0.705   0.460  1.00  0.00     0.048 A 
HETATM    7  O   UNL     1       1.299   0.887   0.617  1.00  0.00    -0.323 OA
HETATM    8  C   UNL     1       2.289  -0.107   0.285  1.00  0.00     0.352 A 
HETATM    9  O   UNL     1       1.721  -1.382  -0.084  1.00  0.00    -0.323 OA
ENDROOT
BRANCH   1  10
HETATM   10  C   UNL     1      -3.625   0.398   0.128  1.00  0.00     0.162 C 
BRANCH  10  11
HETATM   11  N   UNL     1      -3.682   1.784  -0.261  1.00  0.00    -0.348 N 
HETATM   12  C   UNL     1      -4.660   2.648   0.102  1.00  0.00     0.279 C 
HETATM   13  O   UNL     1      -5.627   2.415   0.808  1.00  0.00    -0.260 OA
HETATM   14  H   UNL     1      -3.013   2.138  -0.932  1.00  0.00     0.163 HD
BRANCH  12  15
HETATM   15  S   UNL     1      -4.307   4.200  -0.619  1.00  0.00    -0.074 SA
HETATM   16  C   UNL     1      -5.504   5.233   0.242  1.00  0.00     0.100 C 
ENDBRANCH  12  15
ENDBRANCH  10  11
ENDBRANCH   1  10
TORSDOF 3
