REMARK  2 active torsions:
REMARK  status: ('A' for Active; 'I' for Inactive)
REMARK    1  A    between atoms: N_4  and  C_5 
REMARK    2  A    between atoms: C_5  and  C_6 
ROOT
HETATM    1  C   UNL     1       0.037  -1.940   0.197  1.00  0.00     0.074 C 
HETATM    2  C   UNL     1      -0.596  -0.614   0.086  1.00  0.00     0.071 C 
HETATM    3  C   UNL     1      -1.685  -0.176  -0.630  1.00  0.00     0.142 C 
HETATM    4  N   UNL     1      -1.937   1.066  -0.104  1.00  0.00    -0.256 N 
HETATM    5  N   UNL     1      -0.937   1.442   0.722  1.00  0.00    -0.066 NA
HETATM    6  N   UNL     1      -0.126   0.411   0.863  1.00  0.00    -0.136 NA
ENDROOT
BRANCH   4   7
HETATM    7  C   UNL     1      -3.079   1.943  -0.271  1.00  0.00     0.198 C 
BRANCH   7   8
HETATM    8  C   UNL     1      -4.408   1.261  -0.098  1.00  0.00     0.002 A 
HETATM    9  S   UNL     1      -5.807   2.081  -0.671  1.00  0.00    -0.105 SA
HETATM   10  C   UNL     1      -6.841   0.826  -0.154  1.00  0.00     0.050 A 
HETATM   11  C   UNL     1      -6.149  -0.202   0.443  1.00  0.00     0.008 A 
HETATM   12  C   UNL     1      -4.748   0.060   0.500  1.00  0.00     0.017 A 
ENDBRANCH   7   8
ENDBRANCH   4   7
TORSDOF 2
