REMARK  2 active torsions:
REMARK  status: ('A' for Active; 'I' for Inactive)
REMARK    1  A    between atoms: C_2  and  S_3 
REMARK    2  A    between atoms: S_3  and  C_4 
ROOT
HETATM    1  C   UNL     1      -4.193  -1.006  -0.000  1.00  0.00     0.007 A 
HETATM    2  C   UNL     1      -3.453   0.152  -0.000  1.00  0.00     0.017 A 
HETATM    3  C   UNL     1      -2.037   0.132  -0.000  1.00  0.00     0.002 A 
HETATM    4  C   UNL     1      -1.000  -1.000   0.000  1.00  0.00     0.079 A 
HETATM    5  S   UNL     1       0.000  -1.000   0.000  1.00  0.00    -0.075 SA
HETATM    6  O   UNL     1       0.000  -2.000   0.000  1.00  0.00     0.000 OA
HETATM    7  O   UNL     1       1.000  -1.000   0.000  1.00  0.00     0.000 OA
HETATM    8  O   UNL     1       0.000   0.000   0.000  1.00  0.00     0.000 OA
HETATM    9  C   UNL     1      -2.060  -2.163   0.000  1.00  0.00     0.002 A 
HETATM   10  C   UNL     1      -3.478  -2.185   0.000  1.00  0.00     0.017 A 
HETATM   11  H   UNL     1       0.864   0.452  -0.000  1.00  0.00     0.000 HD
ENDROOT
BRANCH   1  12
HETATM   12  S   UNL     1      -5.957  -1.073  -0.000  1.00  0.00    -0.062 SA
BRANCH  12  13
HETATM   13  C   UNL     1      -6.568   0.575   0.000  1.00  0.00     0.309 C 
HETATM   14  O   UNL     1      -5.913   1.613  -0.000  1.00  0.00    -0.295 OA
ENDBRANCH  12  13
ENDBRANCH   1  12
TORSDOF 2
