REMARK  3 active torsions:
REMARK  status: ('A' for Active; 'I' for Inactive)
REMARK    1  A    between atoms: C_2  and  S_3 
REMARK    2  A    between atoms: S_3  and  C_4 
REMARK    3  A    between atoms: C_8  and  C_9 
ROOT
HETATM    1  C   UNL     1       1.236   0.959   0.000  1.00  0.00     0.008 A 
HETATM    2  C   UNL     1       2.457   0.291  -0.000  1.00  0.00     0.019 A 
HETATM    3  C   UNL     1       2.501  -1.106  -0.000  1.00  0.00     0.002 A 
HETATM    4  C   UNL     1       1.322  -1.858   0.000  1.00  0.00     0.014 A 
HETATM    5  C   UNL     1       0.065  -1.236   0.000  1.00  0.00    -0.006 A 
HETATM    6  C   UNL     1       0.064   0.178   0.000  1.00  0.00     0.032 A 
ENDROOT
BRANCH   5   7
HETATM    7  C   UNL     1      -1.222  -1.985   0.000  1.00  0.00     0.069 A 
HETATM    8  N   UNL     1      -2.338  -1.216   0.000  1.00  0.00    -0.241 NA
HETATM    9  C   UNL     1      -3.524  -1.841   0.000  1.00  0.00     0.233 A 
HETATM   10  N   UNL     1      -3.713  -3.164   0.000  1.00  0.00    -0.254 NA
HETATM   11  C   UNL     1      -2.590  -3.901   0.000  1.00  0.00     0.120 A 
HETATM   12  C   UNL     1      -1.320  -3.366   0.000  1.00  0.00     0.052 A 
ENDBRANCH   5   7
BRANCH   1  13
HETATM   13  S   UNL     1       0.973   2.721  -0.000  1.00  0.00    -0.062 SA
BRANCH  13  14
HETATM   14  C   UNL     1       2.507   3.552  -0.000  1.00  0.00     0.309 C 
HETATM   15  O   UNL     1       3.614   3.029   0.000  1.00  0.00    -0.295 OA
ENDBRANCH  13  14
ENDBRANCH   1  13
TORSDOF 3
