REMARK  5 active torsions:
REMARK  status: ('A' for Active; 'I' for Inactive)
REMARK       I    between atoms: N_1  and  C_2 
REMARK    1  A    between atoms: C_2  and  C_4 
REMARK    2  A    between atoms: C_4  and  O_5 
REMARK    3  A    between atoms: C_4  and  C_6 
REMARK    4  A    between atoms: C_6  and  O_7 
REMARK    5  A    between atoms: O_7  and  C_8 
ROOT
HETATM    1  C   UNL     1       0.000  -2.000   0.000  1.00  0.00     0.217 C 
ENDROOT
BRANCH   1   2
HETATM    2  C   UNL     1       0.000  -3.000   0.000  1.00  0.00     0.234 C 
BRANCH   2   3
HETATM    3  C   UNL     1      -1.358  -3.342  -0.863  1.00  0.00     0.246 C 
HETATM    4  N   UNL     1      -2.557  -2.859  -0.411  1.00  0.00    -0.368 N 
HETATM    5  H   UNL     1      -2.596  -2.131   0.292  1.00  0.00     0.159 HD
HETATM    6  H   UNL     1      -3.372  -3.016  -0.990  1.00  0.00     0.159 HD
HETATM    7  O   UNL     1      -1.355  -4.060  -1.866  1.00  0.00    -0.271 OA
ENDBRANCH   2   3
BRANCH   2   8
HETATM    8  O   UNL     1       1.188  -3.188  -1.014  1.00  0.00    -0.384 OA
HETATM    9  H   UNL     1       1.417  -4.136  -1.045  1.00  0.00     0.210 HD
ENDBRANCH   2   8
ENDBRANCH   1   2
BRANCH   1  10
HETATM   10  O   UNL     1      -0.878  -1.298   0.952  1.00  0.00    -0.343 OA
BRANCH  10  11
HETATM   11  C   UNL     1      -0.871   0.084   0.719  1.00  0.00     0.136 C 
HETATM   12  C   UNL     1       0.389   0.903   0.712  1.00  0.00     0.186 C 
HETATM   13  C   UNL     1       0.311   2.235   0.012  1.00  0.00     0.112 C 
HETATM   14  O   UNL     1       1.429   0.493   1.202  1.00  0.00    -0.290 OA
HETATM   15  C   UNL     1      -0.993   2.883   0.415  1.00  0.00     0.182 C 
HETATM   16  O   UNL     1      -2.128   2.072   0.098  1.00  0.00    -0.360 OA
HETATM   17  C   UNL     1      -1.998   0.741   0.404  1.00  0.00     0.175 C 
ENDBRANCH  10  11
ENDBRANCH   1  10
TORSDOF 5
