REMARK  1 active torsions:
REMARK  status: ('A' for Active; 'I' for Inactive)
REMARK       I    between atoms: C_3  and  N_5 
REMARK    1  A    between atoms: N_5  and  C_7 
ROOT
HETATM    1  C   UNL     1       2.476   1.102  -0.001  1.00  0.00     0.022 C 
HETATM    2  C   UNL     1       1.395   1.628  -0.028  1.00  0.00    -0.016 C 
HETATM    3  C   UNL     1       0.101   2.278  -0.046  1.00  0.00     0.303 C 
HETATM    4  O   UNL     1       0.091   3.503  -0.155  1.00  0.00    -0.258 OA
HETATM    5  N   UNL     1      -1.064   1.515   0.051  1.00  0.00    -0.289 N 
HETATM    6  C   UNL     1      -2.324   2.228   0.115  1.00  0.00     0.162 C 
ENDROOT
BRANCH   5   7
HETATM    7  C   UNL     1      -1.119   0.134  -0.069  1.00  0.00     0.358 C 
HETATM    8  O   UNL     1      -0.194  -0.664  -0.132  1.00  0.00    -0.283 OA
ENDBRANCH   5   7
TORSDOF 1
