REMARK  4 active torsions:
REMARK  status: ('A' for Active; 'I' for Inactive)
REMARK    1  A    between atoms: S_2  and  C_3 
REMARK    2  A    between atoms: C_3  and  N_5 
REMARK    3  A    between atoms: N_5  and  C_6 
REMARK    4  A    between atoms: C_6  and  C_7 
ROOT
HETATM    1  N   UNL     1       1.718  -0.330   0.007  1.00  0.00    -0.369 N 
HETATM    2  H   UNL     1       1.828  -1.287  -0.311  1.00  0.00     0.161 HD
ENDROOT
BRANCH   1   3
HETATM    3  C   UNL     1       2.866   0.402   0.186  1.00  0.00     0.103 C 
HETATM    4  S   UNL     1       2.918   2.042   0.518  1.00  0.00    -0.056 SA
BRANCH   3   5
HETATM    5  S   UNL     1       4.330  -0.500   0.000  1.00  0.00    -0.239 SA
HETATM    6  C   UNL     1       4.330  -1.500   0.000  1.00  0.00     0.268 C 
ENDBRANCH   3   5
ENDBRANCH   1   3
BRANCH   1   7
HETATM    7  C   UNL     1       0.357   0.239  -0.058  1.00  0.00     0.238 C 
BRANCH   7   8
HETATM    8  C   UNL     1      -0.774  -0.786  -0.034  1.00  0.00     0.403 C 
HETATM    9  F   UNL     1      -0.831  -1.428   1.154  1.00  0.00    -0.169 F 
HETATM   10  F   UNL     1      -0.593  -1.719  -0.996  1.00  0.00    -0.169 F 
HETATM   11  F   UNL     1      -1.969  -0.197  -0.246  1.00  0.00    -0.169 F 
ENDBRANCH   7   8
ENDBRANCH   1   7
TORSDOF 4
