REMARK  3 active torsions:
REMARK  status: ('A' for Active; 'I' for Inactive)
REMARK    1  A    between atoms: S_2  and  C_3 
REMARK    2  A    between atoms: N_5  and  C_6 
REMARK    3  A    between atoms: C_6  and  N_7 
ROOT
HETATM    1  N   UNL     1      -0.348  -0.468  -0.252  1.00  0.00    -0.254 N 
HETATM    2  N   UNL     1       0.644  -1.372  -0.106  1.00  0.00     0.007 NA
HETATM    3  N   UNL     1       0.075  -2.549   0.103  1.00  0.00    -0.158 NA
HETATM    4  C   UNL     1      -1.283  -2.373   0.102  1.00  0.00     0.102 A 
HETATM    5  C   UNL     1      -2.324  -3.291   0.283  1.00  0.00     0.035 A 
HETATM    6  C   UNL     1      -3.642  -2.823   0.241  1.00  0.00     0.002 A 
HETATM    7  C   UNL     1      -3.918  -1.469   0.025  1.00  0.00     0.002 A 
HETATM    8  C   UNL     1      -2.891  -0.538  -0.162  1.00  0.00     0.033 A 
HETATM    9  C   UNL     1      -1.585  -1.033  -0.118  1.00  0.00     0.081 A 
ENDROOT
BRANCH   1  10
HETATM   10  C   UNL     1      -0.035   0.931  -0.475  1.00  0.00     0.270 C 
BRANCH  10  11
HETATM   11  N   UNL     1       1.383   1.245  -0.430  1.00  0.00    -0.360 N 
HETATM   12  C   UNL     1       1.903   2.499  -0.542  1.00  0.00     0.104 C 
HETATM   13  S   UNL     1       1.053   3.847  -1.052  1.00  0.00    -0.056 SA
HETATM   14  H   UNL     1       1.977   0.501  -0.080  1.00  0.00     0.162 HD
BRANCH  12  15
HETATM   15  S   UNL     1       3.525   2.627   0.000  1.00  0.00    -0.239 SA
HETATM   16  C   UNL     1       4.194   1.884   0.000  1.00  0.00     0.268 C 
ENDBRANCH  12  15
ENDBRANCH  10  11
ENDBRANCH   1  10
TORSDOF 3
