REMARK  5 active torsions:
REMARK  status: ('A' for Active; 'I' for Inactive)
REMARK    1  A    between atoms: C_2  and  C_3 
REMARK    2  A    between atoms: C_3  and  C_4 
REMARK    3  A    between atoms: C_7  and  S_8 
REMARK    4  A    between atoms: S_8  and  C_9 
REMARK    5  A    between atoms: N_11  and  C_12 
ROOT
HETATM    1  C   UNL     1       0.725  -1.030   0.610  1.00  0.00     0.131 A 
HETATM    2  N   UNL     1       0.159  -2.195   0.367  1.00  0.00    -0.134 NA
HETATM    3  N   UNL     1      -0.872  -2.007  -0.485  1.00  0.00    -0.122 NA
HETATM    4  C   UNL     1      -0.960  -0.728  -0.724  1.00  0.00     0.198 A 
HETATM    5  N   UNL     1       0.000   0.000   0.000  1.00  0.00    -0.307 N 
ENDROOT
BRANCH   1   6
HETATM    6  C   UNL     1       1.972  -0.926   1.435  1.00  0.00     0.080 C 
BRANCH   6   7
HETATM    7  C   UNL     1       3.246  -1.261   0.645  1.00  0.00     0.003 C 
HETATM    8  C   UNL     1       3.205  -2.594  -0.095  1.00  0.00     0.005 C 
ENDBRANCH   6   7
ENDBRANCH   1   6
BRANCH   5   9
HETATM    9  C   UNL     1       0.000   1.000   0.000  1.00  0.00     0.085 C 
HETATM   10  C   UNL     1       1.473   1.482  -0.481  1.00  0.00     0.032 C 
HETATM   11  C   UNL     1      -0.496   1.426   1.487  1.00  0.00     0.032 C 
ENDBRANCH   5   9
BRANCH   4  12
HETATM   12  S   UNL     1      -2.135   0.012  -1.772  1.00  0.00    -0.021 SA
BRANCH  12  13
HETATM   13  C   UNL     1      -3.249  -1.337  -1.957  1.00  0.00     0.312 C 
HETATM   14  O   UNL     1      -4.339  -1.173  -2.497  1.00  0.00    -0.295 OA
ENDBRANCH  12  13
ENDBRANCH   4  12
TORSDOF 5
