REMARK  3 active torsions:
REMARK  status: ('A' for Active; 'I' for Inactive)
REMARK    1  A    between atoms: C_6  and  N_7 
REMARK       I    between atoms: N_7  and  C_8 
REMARK    2  A    between atoms: C_8  and  O_10 
REMARK    3  A    between atoms: O_10  and  C_11 
ROOT
HETATM    1  N   UNL     1       3.801  -1.916  -0.098  1.00  0.00    -0.190 NA
HETATM    2  C   UNL     1       2.756  -1.410  -0.114  1.00  0.00     0.119 C 
HETATM    3  C   UNL     1       1.433  -0.846  -0.123  1.00  0.00     0.136 A 
HETATM    4  C   UNL     1       0.319  -1.670  -0.128  1.00  0.00     0.045 A 
HETATM    5  C   UNL     1      -0.949  -1.082  -0.093  1.00  0.00     0.034 A 
HETATM    6  C   UNL     1      -1.081   0.305  -0.053  1.00  0.00     0.054 A 
HETATM    7  C   UNL     1       0.105   1.042  -0.063  1.00  0.00     0.147 A 
HETATM    8  N   UNL     1       1.351   0.505  -0.098  1.00  0.00    -0.248 NA
ENDROOT
BRANCH   6   9
HETATM    9  N   UNL     1      -2.302   0.998   0.084  1.00  0.00    -0.301 N 
HETATM   10  C   UNL     1      -3.591   0.520   0.146  1.00  0.00     0.370 C 
HETATM   11  O   UNL     1      -4.470   1.197   0.670  1.00  0.00    -0.238 OA
HETATM   12  H   UNL     1      -2.258   1.983   0.320  1.00  0.00     0.171 HD
BRANCH  10  13
HETATM   13  O   UNL     1      -3.750  -0.725  -0.385  1.00  0.00    -0.256 OA
BRANCH  13  14
HETATM   14  C   UNL     1      -4.964  -1.377  -0.129  1.00  0.00     0.148 C 
HETATM   15  C   UNL     1      -6.280  -0.805  -0.524  1.00  0.00     0.187 C 
HETATM   16  C   UNL     1      -7.489  -1.487   0.065  1.00  0.00     0.112 C 
HETATM   17  O   UNL     1      -6.369   0.157  -1.281  1.00  0.00    -0.290 OA
HETATM   18  C   UNL     1      -7.239  -2.981  -0.020  1.00  0.00     0.182 C 
HETATM   19  O   UNL     1      -6.063  -3.373   0.698  1.00  0.00    -0.360 OA
HETATM   20  C   UNL     1      -4.971  -2.586   0.448  1.00  0.00     0.175 C 
ENDBRANCH  13  14
ENDBRANCH  10  13
ENDBRANCH   6   9
TORSDOF 3
