REMARK  5 active torsions:
REMARK  status: ('A' for Active; 'I' for Inactive)
REMARK    1  A    between atoms: C_7  and  O_8 
REMARK    2  A    between atoms: O_8  and  C_9 
REMARK    3  A    between atoms: C_9  and  N_11 
REMARK    4  A    between atoms: N_11  and  C_12 
REMARK    5  A    between atoms: C_14  and  C_15 
ROOT
HETATM    1  N   UNL     1      -1.155   0.712  -0.210  1.00  0.00    -0.306 N 
HETATM    2  H   UNL     1      -1.194   1.540  -0.783  1.00  0.00     0.171 HD
ENDROOT
BRANCH   1   3
HETATM    3  C   UNL     1      -2.359   0.363   0.351  1.00  0.00     0.221 C 
HETATM    4  S   UNL     1      -2.636  -0.499   1.762  1.00  0.00    -0.032 SA
BRANCH   3   5
HETATM    5  O   UNL     1      -3.328   1.114  -0.264  1.00  0.00    -0.280 OA
BRANCH   5   6
HETATM    6  C   UNL     1      -4.735   0.908  -0.184  1.00  0.00     0.128 C 
HETATM    7  C   UNL     1      -5.353  -0.299  -0.741  1.00  0.00     0.227 C 
HETATM    8  O   UNL     1      -4.557  -1.050  -1.367  1.00  0.00    -0.283 OA
HETATM    9  C   UNL     1      -6.673  -0.446  -0.501  1.00  0.00     0.192 C 
HETATM   10  O   UNL     1      -7.504   0.448   0.129  1.00  0.00    -0.355 OA
HETATM   11  C   UNL     1      -6.990   1.777   0.270  1.00  0.00     0.205 C 
HETATM   12  C   UNL     1      -5.505   1.906   0.266  1.00  0.00     0.041 C 
ENDBRANCH   5   6
ENDBRANCH   3   5
ENDBRANCH   1   3
BRANCH   1  13
HETATM   13  C   UNL     1       0.093   0.179  -0.054  1.00  0.00     0.173 A 
HETATM   14  S   UNL     1       0.328  -1.486   0.212  1.00  0.00    -0.061 SA
HETATM   15  C   UNL     1       2.024  -1.253   0.100  1.00  0.00     0.085 A 
HETATM   16  C   UNL     1       2.309   0.085  -0.096  1.00  0.00     0.076 A 
HETATM   17  N   UNL     1       1.183   0.883  -0.265  1.00  0.00    -0.223 NA
BRANCH  16  18
HETATM   18  C   UNL     1       3.654   0.665  -0.107  1.00  0.00    -0.007 A 
HETATM   19  C   UNL     1       4.816  -0.120  -0.060  1.00  0.00     0.014 A 
HETATM   20  C   UNL     1       6.083   0.473  -0.011  1.00  0.00     0.001 A 
HETATM   21  C   UNL     1       6.208   1.860  -0.012  1.00  0.00     0.000 A 
HETATM   22  C   UNL     1       5.067   2.656  -0.069  1.00  0.00     0.001 A 
HETATM   23  C   UNL     1       3.802   2.062  -0.118  1.00  0.00     0.014 A 
ENDBRANCH  16  18
ENDBRANCH   1  13
TORSDOF 5
