REMARK  4 active torsions:
REMARK  status: ('A' for Active; 'I' for Inactive)
REMARK    1  A    between atoms: S_2  and  C_3 
REMARK       I    between atoms: C_3  and  N_5 
REMARK    2  A    between atoms: N_5  and  C_6 
REMARK    3  A    between atoms: C_6  and  C_7 
REMARK    4  A    between atoms: C_7  and  C_8 
ROOT
HETATM    1  C   UNL     1      -1.017  -0.704   0.051  1.00  0.00     0.061 C 
ENDROOT
BRANCH   1   2
HETATM    2  C   UNL     1       0.286  -1.174   0.703  1.00  0.00     0.128 C 
BRANCH   2   3
HETATM    3  N   UNL     1       0.302  -2.619   0.843  1.00  0.00    -0.352 N 
HETATM    4  C   UNL     1       1.456  -3.344   0.769  1.00  0.00     0.279 C 
HETATM    5  O   UNL     1       2.569  -2.913   0.528  1.00  0.00    -0.260 OA
HETATM    6  H   UNL     1      -0.484  -3.085   1.277  1.00  0.00     0.163 HD
BRANCH   4   7
HETATM    7  S   UNL     1       1.158  -5.035   1.100  1.00  0.00    -0.074 SA
HETATM    8  C   UNL     1      -0.035  -5.394  -0.207  1.00  0.00     0.100 C 
ENDBRANCH   4   7
ENDBRANCH   2   3
ENDBRANCH   1   2
BRANCH   1   9
HETATM    9  C   UNL     1      -1.240   0.788   0.018  1.00  0.00    -0.018 A 
HETATM   10  C   UNL     1      -0.233   1.691  -0.342  1.00  0.00     0.122 A 
HETATM   11  C   UNL     1      -0.472   3.061  -0.410  1.00  0.00     0.043 A 
HETATM   12  F   UNL     1       0.994   1.250  -0.649  1.00  0.00    -0.206 F 
HETATM   13  C   UNL     1      -1.743   3.557  -0.135  1.00  0.00     0.003 A 
HETATM   14  C   UNL     1      -2.768   2.678   0.204  1.00  0.00     0.001 A 
HETATM   15  C   UNL     1      -2.520   1.303   0.278  1.00  0.00     0.010 A 
ENDBRANCH   1   9
TORSDOF 4
