REMARK  8 active torsions:
REMARK  status: ('A' for Active; 'I' for Inactive)
REMARK    1  A    between atoms: O_2  and  C_3 
REMARK    2  A    between atoms: C_6  and  C_7 
REMARK    3  A    between atoms: C_7  and  O_8 
REMARK    4  A    between atoms: O_8  and  C_9 
REMARK    5  A    between atoms: C_9  and  C_10 
REMARK    6  A    between atoms: C_10  and  C_11 
REMARK    7  A    between atoms: C_11  and  C_12 
REMARK    8  A    between atoms: C_12  and  N_13 
ROOT
HETATM    1  O   UNL     1       3.411  -3.009   0.572  1.00  0.00    -0.387 OA
ENDROOT
BRANCH   1   2
HETATM    2  C   UNL     1       2.789  -2.780  -0.697  1.00  0.00     0.206 C 
BRANCH   2   3
HETATM    3  C   UNL     1       1.779  -1.671  -0.576  1.00  0.00    -0.034 A 
HETATM    4  C   UNL     1       1.881  -0.504  -1.347  1.00  0.00     0.012 A 
HETATM    5  C   UNL     1       1.016   0.566  -1.109  1.00  0.00     0.037 A 
HETATM    6  C   UNL     1       0.032   0.459  -0.129  1.00  0.00     0.068 A 
HETATM    7  C   UNL     1      -0.079  -0.698   0.640  1.00  0.00     0.037 A 
HETATM    8  C   UNL     1       0.781  -1.766   0.405  1.00  0.00     0.012 A 
BRANCH   6   9
HETATM    9  O   UNL     1      -0.741   1.559   0.119  1.00  0.00    -0.356 OA
HETATM   10  C   UNL     1      -2.133   1.298  -0.053  1.00  0.00     0.210 C 
ENDBRANCH   6   9
ENDBRANCH   2   3
ENDBRANCH   1   2
BRANCH   1  11
HETATM   11  C   UNL     1       4.552  -2.180   0.809  1.00  0.00     0.168 C 
BRANCH  11  12
HETATM   12  C   UNL     1       4.191  -0.856   1.488  1.00  0.00     0.028 C 
BRANCH  12  13
HETATM   13  C   UNL     1       5.356   0.120   1.707  1.00  0.00     0.024 C 
BRANCH  13  14
HETATM   14  C   UNL     1       6.107   0.515   0.427  1.00  0.00     0.152 C 
BRANCH  14  15
HETATM   15  N   UNL     1       7.350  -0.207   0.239  1.00  0.00    -0.261 N 
HETATM   16  N   UNL     1       7.393  -1.540   0.388  1.00  0.00    -0.066 NA
HETATM   17  N   UNL     1       8.653  -1.914   0.315  1.00  0.00    -0.136 NA
HETATM   18  C   UNL     1       9.415  -0.806   0.084  1.00  0.00     0.071 A 
HETATM   19  C   UNL     1       8.590   0.296  -0.018  1.00  0.00     0.142 A 
HETATM   20  C   UNL     1      10.882  -0.913   0.019  1.00  0.00     0.074 C 
ENDBRANCH  14  15
ENDBRANCH  13  14
ENDBRANCH  12  13
ENDBRANCH  11  12
ENDBRANCH   1  11
TORSDOF 8
