REMARK  3 active torsions:
REMARK  status: ('A' for Active; 'I' for Inactive)
REMARK    1  A    between atoms: S_2  and  C_3 
REMARK    2  A    between atoms: C_3  and  C_5 
REMARK    3  A    between atoms: C_9  and  N_10 
ROOT
HETATM    1  C   UNL     1       0.867   0.727   0.152  1.00  0.00     0.333 C 
HETATM    2  N   UNL     1       1.529  -0.211  -0.788  1.00  0.00     0.098 N 
HETATM    3  C   UNL     1       1.159  -1.533  -0.295  1.00  0.00     0.273 C 
HETATM    4  C   UNL     1      -0.317  -1.408   0.027  1.00  0.00     0.068 C 
HETATM    5  C   UNL     1      -0.524   0.067   0.399  1.00  0.00     0.260 C 
HETATM    6  H   UNL     1       2.536  -0.105  -0.783  1.00  0.00     0.317 HD
ENDROOT
BRANCH   1   7
HETATM    7  C   UNL     1       0.814   2.186  -0.286  1.00  0.00     0.221 C 
HETATM    8  O   UNL     1      -0.176   2.894  -0.105  1.00  0.00    -0.283 OA
BRANCH   7   9
HETATM    9  S   UNL     1       2.257   2.998  -0.935  1.00  0.00    -0.095 SA
HETATM   10  C   UNL     1       3.649   2.132  -0.201  1.00  0.00     0.099 C 
ENDBRANCH   7   9
ENDBRANCH   1   7
BRANCH   5  11
HETATM   11  N   UNL     1      -1.687   0.560  -0.345  1.00  0.00     0.085 N 
HETATM   12  H   UNL     1      -1.713   1.586  -0.295  1.00  0.00     0.313 HD
HETATM   13  H   UNL     1      -2.551   0.229   0.082  1.00  0.00     0.313 HD
ENDBRANCH   5  11
TORSDOF 3
