REMARK  4 active torsions:
REMARK  status: ('A' for Active; 'I' for Inactive)
REMARK    1  A    between atoms: C_2  and  S_3 
REMARK    2  A    between atoms: S_3  and  C_4 
REMARK    3  A    between atoms: C_4  and  C_5 
REMARK    4  A    between atoms: C_5  and  S_7 
ROOT
HETATM    1  C   UNL     1       2.644   1.072  -1.559  1.00  0.00     0.165 C 
ENDROOT
BRANCH   1   2
HETATM    2  S   UNL     1       4.396   0.706  -1.244  1.00  0.00    -0.155 SA
BRANCH   2   3
HETATM    3  C   UNL     1       4.330  -0.500   0.000  1.00  0.00     0.057 C 
HETATM    4  C   UNL     1       4.330  -1.500   0.000  1.00  0.00     0.022 C 
ENDBRANCH   2   3
ENDBRANCH   1   2
BRANCH   1   5
HETATM    5  C   UNL     1       1.739   0.954  -0.351  1.00  0.00     0.194 C 
HETATM    6  O   UNL     1       1.626   1.812   0.521  1.00  0.00    -0.285 OA
BRANCH   5   7
HETATM    7  S   UNL     1       0.827  -0.560  -0.273  1.00  0.00    -0.096 SA
HETATM    8  C   UNL     1      -0.776   0.088   0.227  1.00  0.00     0.098 C 
ENDBRANCH   5   7
ENDBRANCH   1   5
TORSDOF 4
