REMARK  3 active torsions:
REMARK  status: ('A' for Active; 'I' for Inactive)
REMARK    1  A    between atoms: N_4  and  C_5 
REMARK    2  A    between atoms: C_5  and  C_6 
REMARK    3  A    between atoms: C_6  and  N_7 
ROOT
HETATM    1  C   UNL     1       1.979   0.031  -0.253  1.00  0.00     0.073 C 
HETATM    2  C   UNL     1       0.654  -0.597  -0.096  1.00  0.00     0.065 A 
HETATM    3  C   UNL     1       0.322  -1.929   0.009  1.00  0.00     0.136 A 
HETATM    4  N   UNL     1      -1.041  -1.930   0.055  1.00  0.00    -0.281 N 
HETATM    5  N   UNL     1      -1.521  -0.672   0.053  1.00  0.00     0.004 NA
HETATM    6  N   UNL     1      -0.489   0.153  -0.051  1.00  0.00    -0.164 NA
ENDROOT
BRANCH   4   7
HETATM    7  C   UNL     1      -1.973  -3.038   0.064  1.00  0.00     0.175 C 
BRANCH   7   8
HETATM    8  C   UNL     1      -1.339  -4.415  -0.155  1.00  0.00     0.288 C 
BRANCH   8   9
HETATM    9  N   UNL     1      -2.340  -5.477  -0.266  1.00  0.00     0.079 N 
HETATM   10  H   UNL     1      -2.855  -5.573   0.611  1.00  0.00     0.312 HD
HETATM   11  H   UNL     1      -1.874  -6.371  -0.421  1.00  0.00     0.312 HD
ENDBRANCH   8   9
ENDBRANCH   7   8
ENDBRANCH   4   7
TORSDOF 3
