REMARK  3 active torsions:
REMARK  status: ('A' for Active; 'I' for Inactive)
REMARK    1  A    between atoms: N_4  and  C_5 
REMARK    2  A    between atoms: C_10  and  C_11 
REMARK    3  A    between atoms: C_16  and  N_17 
ROOT
HETATM    1  C   UNL     1      -0.334   3.571   0.084  1.00  0.00     0.065 A 
HETATM    2  C   UNL     1      -1.560   4.272   0.056  1.00  0.00     0.032 A 
HETATM    3  C   UNL     1      -1.593   5.647   0.252  1.00  0.00     0.002 A 
HETATM    4  C   UNL     1      -0.415   6.323   0.534  1.00  0.00     0.001 A 
HETATM    5  C   UNL     1       0.798   5.626   0.623  1.00  0.00     0.014 A 
HETATM    6  C   UNL     1       0.894   4.239   0.372  1.00  0.00     0.005 A 
ENDROOT
BRANCH   6   7
HETATM    7  C   UNL     1       2.217   3.547   0.484  1.00  0.00     0.009 C 
HETATM    8  C   UNL     1       3.413   3.962  -0.141  1.00  0.00     0.114 C 
HETATM    9  C   UNL     1       4.579   3.176  -0.166  1.00  0.00     0.037 C 
HETATM   10  C   UNL     1       4.579   1.932   0.454  1.00  0.00     0.002 C 
HETATM   11  C   UNL     1       3.456   1.528   1.166  1.00  0.00     0.001 C 
HETATM   12  C   UNL     1       2.315   2.342   1.215  1.00  0.00     0.015 C 
BRANCH   8  13
HETATM   13  N   UNL     1       3.528   5.263  -0.764  1.00  0.00    -0.115 N 
HETATM   14  O   UNL     1       2.979   5.425  -1.862  1.00  0.00    -0.532 OA
HETATM   15  O   UNL     1       4.197   6.112  -0.154  1.00  0.00    -0.532 OA
ENDBRANCH   8  13
ENDBRANCH   6   7
BRANCH   1  16
HETATM   16  N   UNL     1      -0.404   2.186  -0.218  1.00  0.00    -0.247 N 
HETATM   17  C   UNL     1      -1.402   1.303   0.139  1.00  0.00     0.142 A 
HETATM   18  C   UNL     1      -1.002   0.091  -0.372  1.00  0.00     0.065 A 
HETATM   19  C   UNL     1      -1.643  -1.234  -0.279  1.00  0.00     0.073 C 
HETATM   20  N   UNL     1       0.177   0.258  -1.040  1.00  0.00    -0.163 NA
HETATM   21  N   UNL     1       0.529   1.533  -0.947  1.00  0.00     0.009 NA
ENDBRANCH   1  16
TORSDOF 3
