REMARK  3 active torsions:
REMARK  status: ('A' for Active; 'I' for Inactive)
REMARK    1  A    between atoms: C_5  and  C_6 
REMARK    2  A    between atoms: C_6  and  O_7 
REMARK    3  A    between atoms: O_7  and  C_8 
ROOT
HETATM    1  C   UNL     1       1.170   1.538   0.119  1.00  0.00     0.048 C 
HETATM    2  C   UNL     1       0.976   0.053   0.098  1.00  0.00     0.082 A 
HETATM    3  C   UNL     1       2.196  -0.787  -0.145  1.00  0.00     0.048 C 
HETATM    4  O   UNL     1       0.157  -0.429   1.184  1.00  0.00    -0.368 OA
HETATM    5  C   UNL     1      -0.390  -0.593  -0.124  1.00  0.00     0.180 A 
ENDROOT
BRANCH   5   6
HETATM    6  C   UNL     1      -1.667   0.131  -0.416  1.00  0.00     0.213 C 
BRANCH   6   7
HETATM    7  O   UNL     1      -1.824   1.318   0.371  1.00  0.00    -0.326 OA
BRANCH   7   8
HETATM    8  C   UNL     1      -2.060   2.463  -0.311  1.00  0.00     0.398 C 
HETATM    9  O   UNL     1      -2.138   2.597  -1.521  1.00  0.00    -0.276 OA
ENDBRANCH   7   8
ENDBRANCH   6   7
ENDBRANCH   5   6
TORSDOF 3
