REMARK  3 active torsions:
REMARK  status: ('A' for Active; 'I' for Inactive)
REMARK    1  A    between atoms: C_4  and  C_5 
REMARK    2  A    between atoms: C_5  and  O_7 
REMARK    3  A    between atoms: O_7  and  C_8 
ROOT
HETATM    1  C   UNL     1      -0.308   3.300   0.736  1.00  0.00     0.297 C 
HETATM    2  O   UNL     1       0.694   3.717   1.338  1.00  0.00    -0.262 OA
ENDROOT
BRANCH   1   3
HETATM    3  C   UNL     1      -0.129   2.308  -0.452  1.00  0.00     0.320 C 
HETATM    4  C   UNL     1      -1.212   1.337  -0.906  1.00  0.00     0.052 C 
HETATM    5  C   UNL     1      -0.937   0.105  -0.058  1.00  0.00     0.017 C 
HETATM    6  C   UNL     1      -1.786  -1.092  -0.436  1.00  0.00     0.012 C 
HETATM    7  C   UNL     1       0.559  -0.020  -0.312  1.00  0.00     0.221 C 
HETATM    8  N   UNL     1       1.007   1.358  -0.087  1.00  0.00     0.102 N 
HETATM    9  C   UNL     1       1.273  -1.020   0.580  1.00  0.00     0.043 C 
HETATM   10  H   UNL     1       1.839   1.600  -0.619  1.00  0.00     0.317 HD
ENDBRANCH   1   3
BRANCH   1  11
HETATM   11  O   UNL     1      -1.524   3.763   1.123  1.00  0.00    -0.273 OA
BRANCH  11  12
HETATM   12  C   UNL     1      -2.800   3.337   0.695  1.00  0.00     0.129 C 
HETATM   13  C   UNL     1      -3.500   4.072  -0.362  1.00  0.00     0.227 C 
HETATM   14  C   UNL     1      -4.817   3.837  -0.475  1.00  0.00     0.192 C 
HETATM   15  O   UNL     1      -2.746   4.841  -1.020  1.00  0.00    -0.283 OA
HETATM   16  O   UNL     1      -5.549   2.908   0.227  1.00  0.00    -0.355 OA
HETATM   17  C   UNL     1      -4.760   1.878   0.838  1.00  0.00     0.205 C 
HETATM   18  C   UNL     1      -3.415   2.316   1.310  1.00  0.00     0.041 C 
ENDBRANCH  11  12
ENDBRANCH   1  11
TORSDOF 3
