REMARK  1 active torsions:
REMARK  status: ('A' for Active; 'I' for Inactive)
REMARK    1  A    between atoms: N_4  and  C_5 
ROOT
HETATM    1  C   UNL     1      -4.084  -3.135   0.141  1.00  0.00     0.073 C 
HETATM    2  C   UNL     1      -2.661  -2.751   0.180  1.00  0.00     0.065 C 
HETATM    3  C   UNL     1      -2.084  -1.503   0.212  1.00  0.00     0.136 C 
HETATM    4  N   UNL     1      -0.707  -1.707   0.000  1.00  0.00    -0.274 N 
HETATM    5  N   UNL     1      -0.512  -3.041   0.268  1.00  0.00     0.005 NA
HETATM    6  N   UNL     1      -1.670  -3.681   0.218  1.00  0.00    -0.164 NA
ENDROOT
BRANCH   4   7
HETATM    7  C   UNL     1       0.000  -1.000   0.000  1.00  0.00     0.153 C 
HETATM    8  C   UNL     1       1.070  -1.600  -1.098  1.00  0.00     0.196 C 
HETATM    9  O   UNL     1       0.701  -0.619  -2.103  1.00  0.00    -0.387 OA
HETATM   10  C   UNL     1      -0.412  -0.121  -1.325  1.00  0.00     0.196 C 
ENDBRANCH   4   7
TORSDOF 1
