REMARK  6 active torsions:
REMARK  status: ('A' for Active; 'I' for Inactive)
REMARK    1  A    between atoms: S_2  and  C_3 
REMARK    2  A    between atoms: C_3  and  C_4 
REMARK    3  A    between atoms: C_4  and  O_5 
REMARK    4  A    between atoms: C_4  and  C_6 
REMARK    5  A    between atoms: C_6  and  S_7 
REMARK    6  A    between atoms: S_7  and  C_8 
ROOT
HETATM    1  C   UNL     1      -1.377   1.752  -1.873  1.00  0.00     0.115 C 
ENDROOT
BRANCH   1   2
HETATM    2  C   UNL     1      -2.802   1.961  -1.292  1.00  0.00     0.137 C 
BRANCH   2   3
HETATM    3  C   UNL     1      -3.351   0.724  -0.565  1.00  0.00     0.105 C 
BRANCH   3   4
HETATM    4  S   UNL     1      -5.177   0.556  -0.618  1.00  0.00    -0.171 SA
HETATM    5  C   UNL     1      -5.668   2.038   0.295  1.00  0.00     0.089 C 
ENDBRANCH   3   4
ENDBRANCH   2   3
BRANCH   2   6
HETATM    6  O   UNL     1      -2.872   3.099  -0.422  1.00  0.00    -0.394 OA
HETATM    7  H   UNL     1      -1.988   3.515  -0.388  1.00  0.00     0.210 HD
ENDBRANCH   2   6
ENDBRANCH   1   2
BRANCH   1   8
HETATM    8  S   UNL     1      -0.062   2.403  -0.833  1.00  0.00    -0.088 SA
BRANCH   8   9
HETATM    9  C   UNL     1       0.924   1.209  -0.091  1.00  0.00     0.190 A 
HETATM   10  N   UNL     1       0.773  -0.137   0.106  1.00  0.00    -0.322 N 
HETATM   11  C   UNL     1       1.838  -0.525   0.874  1.00  0.00     0.235 A 
HETATM   12  C   UNL     1      -0.211  -1.088  -0.314  1.00  0.00     0.159 C 
HETATM   13  N   UNL     1       2.615   0.499   1.113  1.00  0.00    -0.143 NA
HETATM   14  N   UNL     1       2.040   1.583   0.507  1.00  0.00    -0.123 NA
ENDBRANCH   8   9
ENDBRANCH   1   8
TORSDOF 6
