REMARK  3 active torsions:
REMARK  status: ('A' for Active; 'I' for Inactive)
REMARK    1  A    between atoms: C_4  and  C_6 
REMARK    2  A    between atoms: C_6  and  N_7 
REMARK    3  A    between atoms: N_7  and  C_8 
ROOT
HETATM    1  C   UNL     1       3.464   0.000   0.000  1.00  0.00     0.019 A 
HETATM    2  C   UNL     1       3.464   1.000   0.000  1.00  0.00    -0.024 A 
HETATM    3  C   UNL     1       5.084   1.412   0.104  1.00  0.00     0.009 C 
HETATM    4  C   UNL     1       2.598   1.500   0.000  1.00  0.00    -0.005 A 
HETATM    5  C   UNL     1       2.598   2.500   0.000  1.00  0.00     0.019 A 
ENDROOT
BRANCH   4   6
HETATM    6  C   UNL     1       1.247   0.832   0.742  1.00  0.00     0.125 C 
BRANCH   6   7
HETATM    7  N   UNL     1       0.702  -0.305  -0.007  1.00  0.00    -0.368 N 
HETATM    8  H   UNL     1       1.246  -0.726  -0.750  1.00  0.00     0.161 HD
BRANCH   7   9
HETATM    9  C   UNL     1      -0.491  -0.897   0.298  1.00  0.00     0.348 C 
HETATM   10  O   UNL     1      -1.248  -0.548   1.191  1.00  0.00    -0.284 OA
ENDBRANCH   7   9
ENDBRANCH   6   7
ENDBRANCH   4   6
TORSDOF 3
