REMARK  8 active torsions:
REMARK  status: ('A' for Active; 'I' for Inactive)
REMARK    1  A    between atoms: C_2  and  C_3 
REMARK    2  A    between atoms: C_2  and  C_17 
REMARK    3  A    between atoms: C_3  and  C_4 
REMARK    4  A    between atoms: C_4  and  C_5 
REMARK    5  A    between atoms: C_5  and  N_6 
REMARK       I    between atoms: N_6  and  C_7 
REMARK    6  A    between atoms: C_7  and  O_9 
REMARK    7  A    between atoms: O_9  and  C_10 
REMARK    8  A    between atoms: C_17  and  N_18 
ROOT
HETATM    1  N   UNL     1       3.725  -0.840   0.482  1.00  0.00    -0.247 NA
HETATM    2  C   UNL     1       3.760  -1.761  -0.247  1.00  0.00     0.332 C 
HETATM    3  O   UNL     1       3.831  -2.673  -0.983  1.00  0.00    -0.260 OA
ENDROOT
BRANCH   1   4
HETATM    4  C   UNL     1       3.260   0.411  -0.143  1.00  0.00     0.157 C 
BRANCH   4   5
HETATM    5  C   UNL     1       4.273   1.556   0.079  1.00  0.00     0.002 C 
HETATM    6  C   UNL     1       5.705   1.086  -0.225  1.00  0.00     0.011 C 
BRANCH   5   7
HETATM    7  C   UNL     1       3.961   2.785  -0.812  1.00  0.00     0.007 C 
BRANCH   7   8
HETATM    8  C   UNL     1       2.984   3.829  -0.246  1.00  0.00     0.020 C 
BRANCH   8   9
HETATM    9  C   UNL     1       1.559   3.362   0.038  1.00  0.00     0.125 C 
BRANCH   9  10
HETATM   10  N   UNL     1       0.975   2.713  -1.113  1.00  0.00    -0.337 N 
HETATM   11  C   UNL     1       0.119   1.637  -1.079  1.00  0.00     0.366 C 
HETATM   12  O   UNL     1      -0.247   1.148  -2.145  1.00  0.00    -0.238 OA
HETATM   13  H   UNL     1       1.019   3.144  -2.025  1.00  0.00     0.164 HD
BRANCH  11  14
HETATM   14  O   UNL     1      -0.107   1.185   0.187  1.00  0.00    -0.255 OA
BRANCH  14  15
HETATM   15  C   UNL     1      -0.901   0.029   0.238  1.00  0.00     0.152 C 
HETATM   16  C   UNL     1      -2.340   0.175   0.473  1.00  0.00     0.205 C 
HETATM   17  C   UNL     1      -3.042  -0.968   0.383  1.00  0.00     0.057 C 
HETATM   18  O   UNL     1      -2.723   1.349   0.719  1.00  0.00    -0.286 OA
HETATM   19  C   UNL     1      -2.421  -2.299   0.088  1.00  0.00     0.206 C 
HETATM   20  O   UNL     1      -0.992  -2.388   0.229  1.00  0.00    -0.356 OA
HETATM   21  C   UNL     1      -0.334  -1.188   0.183  1.00  0.00     0.176 C 
ENDBRANCH  14  15
ENDBRANCH  11  14
ENDBRANCH   9  10
ENDBRANCH   8   9
ENDBRANCH   7   8
ENDBRANCH   5   7
ENDBRANCH   4   5
ENDBRANCH   1   4
TORSDOF 8
