REMARK  2 active torsions:
REMARK  status: ('A' for Active; 'I' for Inactive)
REMARK       I    between atoms: N_4  and  C_5 
REMARK    1  A    between atoms: C_5  and  C_7 
REMARK    2  A    between atoms: C_8  and  C_9 
ROOT
HETATM    1  C   UNL     1       0.565  -1.691  -0.126  1.00  0.00     0.073 C 
HETATM    2  C   UNL     1      -0.240  -0.456  -0.048  1.00  0.00     0.066 A 
HETATM    3  C   UNL     1      -1.574  -0.256  -0.317  1.00  0.00     0.145 A 
HETATM    4  N   UNL     1      -1.817   1.062   0.022  1.00  0.00    -0.212 N 
HETATM    5  C   UNL     1      -3.006   1.813   0.064  1.00  0.00     0.264 C 
HETATM    6  O   UNL     1      -2.971   3.035   0.188  1.00  0.00    -0.267 OA
HETATM    7  N   UNL     1      -0.636   1.649   0.351  1.00  0.00     0.012 NA
HETATM    8  N   UNL     1       0.314   0.725   0.348  1.00  0.00    -0.163 NA
ENDROOT
BRANCH   5   9
HETATM    9  C   UNL     1      -4.305   1.106  -0.081  1.00  0.00     0.079 C 
HETATM   10  C   UNL     1      -4.600  -0.097   0.432  1.00  0.00     0.043 C 
BRANCH  10  11
HETATM   11  C   UNL     1      -5.879  -0.683   0.229  1.00  0.00     0.075 A 
HETATM   12  O   UNL     1      -7.040   0.034   0.045  1.00  0.00    -0.323 OA
HETATM   13  C   UNL     1      -8.065  -0.843  -0.086  1.00  0.00     0.142 A 
HETATM   14  C   UNL     1      -7.604  -2.133  -0.026  1.00  0.00     0.027 A 
HETATM   15  C   UNL     1      -6.209  -2.032   0.181  1.00  0.00     0.039 A 
ENDBRANCH  10  11
ENDBRANCH   5   9
TORSDOF 2
