REMARK  1 active torsions:
REMARK  status: ('A' for Active; 'I' for Inactive)
REMARK    1  A    between atoms: N_4  and  C_5 
ROOT
HETATM    1  C   UNL     1       1.522  -2.044   0.586  1.00  0.00     0.073 C 
HETATM    2  C   UNL     1       0.445  -1.045   0.463  1.00  0.00     0.065 A 
HETATM    3  C   UNL     1      -0.919  -1.215   0.533  1.00  0.00     0.137 A 
HETATM    4  N   UNL     1      -1.428   0.019   0.228  1.00  0.00    -0.274 N 
HETATM    5  N   UNL     1      -0.434   0.916   0.083  1.00  0.00     0.005 NA
HETATM    6  N   UNL     1       0.718   0.271   0.208  1.00  0.00    -0.164 NA
ENDROOT
BRANCH   4   7
HETATM    7  C   UNL     1      -2.830   0.375  -0.031  1.00  0.00     0.041 C 
HETATM    8  C   UNL     1      -3.646   0.270   1.268  1.00  0.00     0.039 C 
HETATM    9  C   UNL     1      -3.412  -0.591  -1.085  1.00  0.00     0.039 C 
HETATM   10  C   UNL     1      -2.972   1.812  -0.579  1.00  0.00     0.039 C 
ENDBRANCH   4   7
TORSDOF 1
