REMARK  5 active torsions:
REMARK  status: ('A' for Active; 'I' for Inactive)
REMARK    1  A    between atoms: S_2  and  C_3 
REMARK       I    between atoms: C_3  and  N_5 
REMARK    2  A    between atoms: N_5  and  C_6 
REMARK    3  A    between atoms: C_6  and  C_7 
REMARK    4  A    between atoms: C_10  and  O_11 
REMARK    5  A    between atoms: O_11  and  C_12 
ROOT
HETATM    1  C   UNL     1      -0.315   0.150  -0.108  1.00  0.00    -0.040 A 
HETATM    2  C   UNL     1      -0.083  -1.200   0.190  1.00  0.00     0.011 A 
HETATM    3  C   UNL     1      -1.128  -2.122   0.187  1.00  0.00     0.037 A 
HETATM    4  C   UNL     1      -2.435  -1.717  -0.085  1.00  0.00     0.078 A 
HETATM    5  C   UNL     1      -2.680  -0.377  -0.384  1.00  0.00     0.037 A 
HETATM    6  C   UNL     1      -1.629   0.548  -0.393  1.00  0.00     0.011 A 
ENDROOT
BRANCH   1   7
HETATM    7  C   UNL     1       0.777   1.194  -0.055  1.00  0.00     0.161 C 
BRANCH   7   8
HETATM    8  N   UNL     1       2.088   0.664  -0.334  1.00  0.00    -0.350 N 
HETATM    9  C   UNL     1       2.914   0.223   0.660  1.00  0.00     0.248 C 
HETATM   10  O   UNL     1       2.702   0.298   1.858  1.00  0.00    -0.263 OA
HETATM   11  H   UNL     1       2.352   0.459  -1.287  1.00  0.00     0.163 HD
BRANCH   9  12
HETATM   12  S   UNL     1       4.330  -0.500   0.000  1.00  0.00    -0.213 SA
HETATM   13  C   UNL     1       4.330  -1.500   0.000  1.00  0.00     0.275 C 
ENDBRANCH   9  12
ENDBRANCH   7   8
ENDBRANCH   1   7
BRANCH   4  14
HETATM   14  O   UNL     1      -3.357  -2.719  -0.036  1.00  0.00    -0.255 OA
BRANCH  14  15
HETATM   15  C   UNL     1      -4.713  -2.340   0.121  1.00  0.00     0.530 C 
HETATM   16  F   UNL     1      -5.183  -1.745  -0.997  1.00  0.00    -0.144 F 
HETATM   17  F   UNL     1      -5.450  -3.452   0.345  1.00  0.00    -0.144 F 
HETATM   18  F   UNL     1      -4.875  -1.512   1.175  1.00  0.00    -0.144 F 
ENDBRANCH  14  15
ENDBRANCH   4  14
TORSDOF 5
