REMARK  7 active torsions:
REMARK  status: ('A' for Active; 'I' for Inactive)
REMARK    1  A    between atoms: C_2  and  C_3 
REMARK    2  A    between atoms: C_3  and  C_4 
REMARK    3  A    between atoms: C_4  and  C_5 
REMARK    4  A    between atoms: C_5  and  C_6 
REMARK    5  A    between atoms: C_6  and  O_7 
REMARK    6  A    between atoms: C_6  and  C_8 
REMARK    7  A    between atoms: C_8  and  S_9 
ROOT
HETATM    1  C   UNL     1       1.934   1.790   0.958  1.00  0.00     0.127 C 
ENDROOT
BRANCH   1   2
HETATM    2  C   UNL     1       2.017   2.174  -0.525  1.00  0.00     0.032 C 
BRANCH   2   3
HETATM    3  C   UNL     1       3.042   1.476  -1.425  1.00  0.00     0.002 C 
BRANCH   3   4
HETATM    4  C   UNL     1       4.511   1.794  -1.146  1.00  0.00    -0.000 C 
BRANCH   4   5
HETATM    5  C   UNL     1       5.196   1.000   0.000  1.00  0.00    -0.005 C 
HETATM    6  C   UNL     1       5.196   0.000   0.000  1.00  0.00     0.005 C 
ENDBRANCH   4   5
ENDBRANCH   3   4
ENDBRANCH   2   3
ENDBRANCH   1   2
BRANCH   1   7
HETATM    7  O   UNL     1       0.806   2.483   1.525  1.00  0.00    -0.395 OA
HETATM    8  H   UNL     1       0.935   3.434   1.368  1.00  0.00     0.210 HD
ENDBRANCH   1   7
BRANCH   1   9
HETATM    9  C   UNL     1       1.817   0.300   1.341  1.00  0.00     0.105 C 
BRANCH   9  10
HETATM   10  S   UNL     1       1.015  -0.875   0.187  1.00  0.00    -0.171 SA
HETATM   11  C   UNL     1      -0.628  -0.143   0.025  1.00  0.00     0.089 C 
ENDBRANCH   9  10
ENDBRANCH   1   9
TORSDOF 7
