REMARK  3 active torsions:
REMARK  status: ('A' for Active; 'I' for Inactive)
REMARK    1  A    between atoms: O_2  and  C_3 
REMARK    2  A    between atoms: C_6  and  N_7 
REMARK    3  A    between atoms: C_14  and  O_15 
ROOT
HETATM    1  C   UNL     1       0.503  -0.609  -0.100  1.00  0.00     0.101 A 
HETATM    2  C   UNL     1       0.640  -2.002  -0.231  1.00  0.00     0.042 A 
HETATM    3  C   UNL     1      -0.474  -2.849  -0.265  1.00  0.00     0.034 A 
HETATM    4  C   UNL     1      -1.763  -2.310  -0.203  1.00  0.00     0.057 A 
HETATM    5  C   UNL     1      -1.911  -0.911  -0.100  1.00  0.00     0.070 A 
HETATM    6  C   UNL     1      -0.798  -0.061  -0.015  1.00  0.00     0.103 A 
ENDROOT
BRANCH   4   7
HETATM    7  N   UNL     1      -2.909  -3.140  -0.183  1.00  0.00    -0.247 N 
HETATM    8  N   UNL     1      -4.164  -2.635  -0.157  1.00  0.00     0.009 NA
HETATM    9  N   UNL     1      -5.027  -3.639  -0.086  1.00  0.00    -0.163 NA
HETATM   10  C   UNL     1      -4.319  -4.808  -0.061  1.00  0.00     0.065 A 
HETATM   11  C   UNL     1      -2.975  -4.519  -0.140  1.00  0.00     0.142 A 
HETATM   12  C   UNL     1      -5.001  -6.111   0.040  1.00  0.00     0.073 C 
ENDBRANCH   4   7
BRANCH   6  13
HETATM   13  O   UNL     1      -1.120   1.213   0.386  1.00  0.00    -0.353 OA
HETATM   14  C   UNL     1      -0.772   2.305  -0.444  1.00  0.00     0.210 C 
ENDBRANCH   6  13
BRANCH   1  15
HETATM   15  O   UNL     1       1.732   0.000   0.000  1.00  0.00    -0.353 OA
HETATM   16  C   UNL     1       1.732   1.000   0.000  1.00  0.00     0.210 C 
ENDBRANCH   1  15
TORSDOF 3
