REMARK  6 active torsions:
REMARK  status: ('A' for Active; 'I' for Inactive)
REMARK    1  A    between atoms: C_7  and  O_8 
REMARK    2  A    between atoms: O_8  and  C_9 
REMARK    3  A    between atoms: C_9  and  N_11 
REMARK    4  A    between atoms: N_11  and  C_12 
REMARK    5  A    between atoms: C_12  and  C_13 
REMARK    6  A    between atoms: C_13  and  C_14 
ROOT
HETATM    1  C   UNL     1      -1.432   2.813   0.207  1.00  0.00     0.215 C 
HETATM    2  S   UNL     1      -1.426   4.238   1.063  1.00  0.00    -0.033 SA
ENDROOT
BRANCH   1   3
HETATM    3  O   UNL     1      -2.572   2.156  -0.150  1.00  0.00    -0.279 OA
BRANCH   3   4
HETATM    4  C   UNL     1      -3.923   2.585  -0.105  1.00  0.00     0.146 C 
HETATM    5  C   UNL     1      -4.934   1.593   0.349  1.00  0.00     0.186 C 
HETATM    6  O   UNL     1      -4.597   0.549   0.901  1.00  0.00    -0.290 OA
HETATM    7  C   UNL     1      -6.368   1.880  -0.001  1.00  0.00     0.112 C 
HETATM    8  C   UNL     1      -6.592   3.374   0.107  1.00  0.00     0.182 C 
HETATM    9  O   UNL     1      -5.695   4.121  -0.721  1.00  0.00    -0.360 OA
HETATM   10  C   UNL     1      -4.383   3.723  -0.644  1.00  0.00     0.175 C 
ENDBRANCH   3   4
ENDBRANCH   1   3
BRANCH   1  11
HETATM   11  N   UNL     1      -0.351   2.077  -0.205  1.00  0.00    -0.361 N 
HETATM   12  H   UNL     1      -0.600   1.316  -0.835  1.00  0.00     0.162 HD
BRANCH  11  13
HETATM   13  C   UNL     1       1.052   2.429  -0.123  1.00  0.00     0.127 C 
BRANCH  13  14
HETATM   14  C   UNL     1       2.063   1.294   0.159  1.00  0.00     0.060 C 
BRANCH  14  15
HETATM   15  C   UNL     1       1.739  -0.179   0.083  1.00  0.00    -0.039 A 
HETATM   16  C   UNL     1       0.523  -0.751   0.441  1.00  0.00     0.123 A 
HETATM   17  N   UNL     1       0.265  -2.082   0.430  1.00  0.00    -0.273 NA
HETATM   18  C   UNL     1       1.284  -2.904   0.108  1.00  0.00     0.116 A 
HETATM   19  C   UNL     1       2.551  -2.455  -0.205  1.00  0.00     0.020 A 
HETATM   20  C   UNL     1       2.774  -1.079  -0.220  1.00  0.00     0.010 A 
ENDBRANCH  14  15
ENDBRANCH  13  14
ENDBRANCH  11  13
ENDBRANCH   1  11
TORSDOF 6
