REMARK  3 active torsions:
REMARK  status: ('A' for Active; 'I' for Inactive)
REMARK    1  A    between atoms: C_2  and  O_3 
REMARK    2  A    between atoms: C_2  and  C_11 
REMARK    3  A    between atoms: O_3  and  C_4 
ROOT
HETATM    1  O   UNL     1       2.375   2.432  -0.101  1.00  0.00    -0.262 OA
HETATM    2  C   UNL     1       1.361   1.732   0.006  1.00  0.00     0.298 C 
ENDROOT
BRANCH   2   3
HETATM    3  O   UNL     1       0.134   2.296  -0.038  1.00  0.00    -0.273 OA
BRANCH   3   4
HETATM    4  C   UNL     1      -1.259   1.951   0.039  1.00  0.00     0.129 C 
HETATM    5  C   UNL     1      -2.204   2.918  -0.546  1.00  0.00     0.227 C 
HETATM    6  C   UNL     1      -3.520   2.637  -0.430  1.00  0.00     0.192 C 
HETATM    7  O   UNL     1      -1.655   3.933  -1.053  1.00  0.00    -0.283 OA
HETATM    8  O   UNL     1      -4.083   1.527   0.133  1.00  0.00    -0.355 OA
HETATM    9  C   UNL     1      -3.182   0.467   0.455  1.00  0.00     0.205 C 
HETATM   10  C   UNL     1      -1.741   0.833   0.596  1.00  0.00     0.041 C 
ENDBRANCH   3   4
ENDBRANCH   2   3
BRANCH   2  11
HETATM   11  C   UNL     1       1.513   0.239   0.278  1.00  0.00     0.329 C 
HETATM   12  C   UNL     1       2.917  -0.202  -0.164  1.00  0.00     0.121 C 
HETATM   13  S   UNL     1       2.839  -2.013  -0.191  1.00  0.00    -0.137 SA
HETATM   14  C   UNL     1       1.039  -2.027  -0.176  1.00  0.00     0.344 C 
HETATM   15  N   UNL     1       0.587  -0.670  -0.449  1.00  0.00     0.107 N 
HETATM   16  H   UNL     1       0.657  -0.477  -1.447  1.00  0.00     0.318 HD
ENDBRANCH   2  11
TORSDOF 3
