REMARK  0 active torsions:
REMARK  status: ('A' for Active; 'I' for Inactive)
ROOT
HETATM    1  N   UNL     1      -0.866  -2.500   0.000  1.00  0.00    -0.191 NA
HETATM    2  C   UNL     1      -0.866  -1.500   0.000  1.00  0.00     0.105 C 
HETATM    3  C   UNL     1      -0.866  -0.500   0.000  1.00  0.00     0.112 C 
HETATM    4  C   UNL     1      -1.904   0.265   0.399  1.00  0.00     0.161 C 
HETATM    5  O   UNL     1      -1.989   1.630   0.490  1.00  0.00    -0.361 OA
HETATM    6  C   UNL     1      -0.937   2.352  -0.149  1.00  0.00     0.182 C 
HETATM    7  C   UNL     1       0.408   1.733   0.129  1.00  0.00     0.111 C 
HETATM    8  C   UNL     1       0.357   0.300  -0.330  1.00  0.00     0.173 C 
HETATM    9  O   UNL     1       1.332  -0.203  -0.889  1.00  0.00    -0.291 OA
ENDROOT
TORSDOF 0
