REMARK  7 active torsions:
REMARK  status: ('A' for Active; 'I' for Inactive)
REMARK    1  A    between atoms: C_2  and  O_3 
REMARK    2  A    between atoms: C_2  and  C_4 
REMARK    3  A    between atoms: C_4  and  C_5 
REMARK       I    between atoms: C_5  and  N_7 
REMARK    4  A    between atoms: N_7  and  C_8 
REMARK    5  A    between atoms: C_8  and  C_9 
REMARK    6  A    between atoms: C_9  and  S_12 
REMARK    7  A    between atoms: S_12  and  C_13 
ROOT
HETATM    1  C   UNL     1       4.062   0.587   2.217  1.00  0.00     0.199 C 
HETATM    2  O   UNL     1       4.231   0.174   3.358  1.00  0.00    -0.280 OA
HETATM    3  N   UNL     1       2.834   0.621   1.593  1.00  0.00    -0.261 NA
HETATM    4  H   UNL     1       2.787   1.199   0.764  1.00  0.00     0.130 HD
ENDROOT
BRANCH   3   5
HETATM    5  C   UNL     1       2.273  -0.695   1.439  1.00  0.00     0.115 C 
BRANCH   5   6
HETATM    6  C   UNL     1       1.732  -1.000   0.000  1.00  0.00     0.020 C 
HETATM    7  C   UNL     1       0.732  -1.000   0.000  1.00  0.00     0.028 C 
HETATM    8  C   UNL     1       2.233  -2.477  -0.324  1.00  0.00     0.028 C 
BRANCH   6   9
HETATM    9  S   UNL     1       2.390   0.046  -1.482  1.00  0.00    -0.091 SA
BRANCH   9  10
HETATM   10  C   UNL     1       1.259   1.387  -1.580  1.00  0.00     0.304 C 
HETATM   11  O   UNL     1       0.198   1.295  -2.179  1.00  0.00    -0.295 OA
ENDBRANCH   9  10
ENDBRANCH   6   9
ENDBRANCH   5   6
ENDBRANCH   3   5
BRANCH   1  12
HETATM   12  C   UNL     1       5.171   0.905   1.279  1.00  0.00     0.127 C 
BRANCH  12  13
HETATM   13  C   UNL     1       5.196   0.000   0.000  1.00  0.00     0.122 C 
HETATM   14  C   UNL     1       5.196  -1.000   0.000  1.00  0.00     0.040 C 
BRANCH  13  15
HETATM   15  O   UNL     1       6.488   0.475  -0.599  1.00  0.00    -0.396 OA
HETATM   16  H   UNL     1       6.325   1.318  -1.055  1.00  0.00     0.210 HD
ENDBRANCH  13  15
ENDBRANCH  12  13
ENDBRANCH   1  12
TORSDOF 7
