REMARK  3 active torsions:
REMARK  status: ('A' for Active; 'I' for Inactive)
REMARK    1  A    between atoms: S_2  and  C_3 
REMARK    2  A    between atoms: C_3  and  C_5 
REMARK    3  A    between atoms: C_9  and  C_10 
ROOT
HETATM    1  C   UNL     1       0.000  -1.000   0.000  1.00  0.00     0.103 A 
HETATM    2  C   UNL     1       0.000   0.000   0.000  1.00  0.00     0.003 A 
HETATM    3  C   UNL     1       1.000   0.000   0.000  1.00  0.00    -0.017 A 
HETATM    4  C   UNL     1       2.000   0.000   0.000  1.00  0.00     0.011 A 
HETATM    5  C   UNL     1       2.000  -1.000   0.000  1.00  0.00     0.011 A 
HETATM    6  C   UNL     1       1.000  -1.000   0.000  1.00  0.00    -0.017 A 
ENDROOT
BRANCH   1   7
HETATM    7  C   UNL     1      -0.815  -2.312  -0.000  1.00  0.00     0.191 C 
HETATM    8  O   UNL     1      -0.380  -3.492   0.000  1.00  0.00    -0.285 OA
BRANCH   7   9
HETATM    9  S   UNL     1      -2.742  -2.017   0.000  1.00  0.00    -0.097 SA
HETATM   10  C   UNL     1      -3.009  -0.210  -0.000  1.00  0.00     0.098 C 
ENDBRANCH   7   9
ENDBRANCH   1   7
TORSDOF 3
