REMARK  4 active torsions:
REMARK  status: ('A' for Active; 'I' for Inactive)
REMARK    1  A    between atoms: C_2  and  O_3 
REMARK    2  A    between atoms: O_3  and  C_4 
REMARK    3  A    between atoms: C_8  and  N_9 
REMARK       I    between atoms: N_9  and  C_10 
REMARK    4  A    between atoms: C_10  and  S_12 
ROOT
HETATM    1  C   UNL     1       0.382  -0.339   0.154  1.00  0.00     0.070 C 
HETATM    2  C   UNL     1       0.206  -1.722  -0.094  1.00  0.00     0.037 C 
HETATM    3  C   UNL     1      -0.065  -2.121  -1.393  1.00  0.00     0.005 C 
HETATM    4  C   UNL     1      -0.570  -1.161  -2.256  1.00  0.00     0.024 C 
HETATM    5  C   UNL     1      -0.817   0.138  -1.767  1.00  0.00     0.018 C 
HETATM    6  C   UNL     1      -0.136   0.629  -0.670  1.00  0.00     0.060 C 
ENDROOT
BRANCH   5   7
HETATM    7  N   UNL     1      -2.164   0.547  -1.806  1.00  0.00    -0.222 NA
HETATM    8  C   UNL     1      -3.032   0.029  -0.836  1.00  0.00     0.232 C 
HETATM    9  O   UNL     1      -4.070   0.621  -0.565  1.00  0.00    -0.270 OA
HETATM   10  H   UNL     1      -2.331   1.548  -1.844  1.00  0.00     0.137 HD
BRANCH   8  11
HETATM   11  S   UNL     1      -2.598  -1.500   0.000  1.00  0.00    -0.217 SA
HETATM   12  C   UNL     1      -3.464  -2.000   0.000  1.00  0.00     0.274 C 
ENDBRANCH   8  11
ENDBRANCH   5   7
BRANCH   1  13
HETATM   13  O   UNL     1       1.514   0.013   0.864  1.00  0.00    -0.351 OA
BRANCH  13  14
HETATM   14  C   UNL     1       2.598  -0.500   0.000  1.00  0.00     0.171 C 
HETATM   15  C   UNL     1       2.598  -1.500   0.000  1.00  0.00     0.034 C 
ENDBRANCH  13  14
ENDBRANCH   1  13
TORSDOF 4
