REMARK  4 active torsions:
REMARK  status: ('A' for Active; 'I' for Inactive)
REMARK       I    between atoms: C_2  and  N_3 
REMARK    1  A    between atoms: C_2  and  O_13 
REMARK    2  A    between atoms: N_3  and  C_4 
REMARK    3  A    between atoms: C_5  and  C_6 
REMARK    4  A    between atoms: O_13  and  C_14 
ROOT
HETATM    1  O   UNL     1      -0.599  -4.081  -0.006  1.00  0.00    -0.238 OA
HETATM    2  C   UNL     1       0.343  -3.287   0.008  1.00  0.00     0.370 C 
HETATM    3  N   UNL     1       1.635  -3.795   0.014  1.00  0.00    -0.312 N 
HETATM    4  H   UNL     1       1.621  -4.806   0.025  1.00  0.00     0.170 HD
ENDROOT
BRANCH   3   5
HETATM    5  C   UNL     1       2.875  -3.186   0.017  1.00  0.00     0.094 C 
HETATM    6  C   UNL     1       3.111  -1.869  -0.015  1.00  0.00     0.028 C 
BRANCH   6   7
HETATM    7  C   UNL     1       4.386  -1.134  -0.007  1.00  0.00    -0.032 A 
HETATM    8  C   UNL     1       5.649  -1.725  -0.006  1.00  0.00     0.053 A 
HETATM    9  C   UNL     1       6.787  -0.917  -0.003  1.00  0.00     0.117 A 
HETATM   10  C   UNL     1       6.699   0.471  -0.002  1.00  0.00     0.042 A 
HETATM   11  F   UNL     1       7.999  -1.492  -0.001  1.00  0.00    -0.206 F 
HETATM   12  C   UNL     1       5.446   1.072  -0.003  1.00  0.00     0.004 A 
HETATM   13  C   UNL     1       4.304   0.273  -0.006  1.00  0.00     0.011 A 
ENDBRANCH   6   7
ENDBRANCH   3   5
BRANCH   2  14
HETATM   14  O   UNL     1       0.257  -1.934   0.025  1.00  0.00    -0.255 OA
BRANCH  14  15
HETATM   15  C   UNL     1      -0.895  -1.092   0.006  1.00  0.00     0.152 A 
HETATM   16  C   UNL     1      -0.642   0.358   0.098  1.00  0.00     0.205 A 
HETATM   17  C   UNL     1      -1.731   1.144   0.075  1.00  0.00     0.057 A 
HETATM   18  O   UNL     1       0.564   0.700   0.190  1.00  0.00    -0.286 OA
HETATM   19  C   UNL     1      -3.129   0.634  -0.029  1.00  0.00     0.206 A 
HETATM   20  O   UNL     1      -3.299  -0.787  -0.135  1.00  0.00    -0.356 OA
HETATM   21  C   UNL     1      -2.157  -1.547  -0.103  1.00  0.00     0.176 A 
ENDBRANCH  14  15
ENDBRANCH   2  14
TORSDOF 4
