REMARK  3 active torsions:
REMARK  status: ('A' for Active; 'I' for Inactive)
REMARK    1  A    between atoms: C_3  and  C_4 
REMARK    2  A    between atoms: C_5  and  C_6 
REMARK    3  A    between atoms: C_6  and  S_8 
ROOT
HETATM    1  C   UNL     1       1.886   1.927  -0.032  1.00  0.00     0.004 C 
HETATM    2  C   UNL     1       0.878   2.792   0.157  1.00  0.00     0.062 C 
ENDROOT
BRANCH   2   3
HETATM    3  C   UNL     1      -0.527   2.348   0.256  1.00  0.00     0.208 C 
HETATM    4  O   UNL     1      -1.434   2.965  -0.290  1.00  0.00    -0.281 OA
BRANCH   3   5
HETATM    5  S   UNL     1      -0.839   0.963   1.289  1.00  0.00    -0.093 SA
HETATM    6  C   UNL     1      -1.341  -0.199   0.009  1.00  0.00     0.099 C 
ENDBRANCH   3   5
ENDBRANCH   2   3
BRANCH   1   7
HETATM    7  C   UNL     1       3.273   2.340  -0.050  1.00  0.00    -0.004 C 
HETATM    8  C   UNL     1       4.330   1.500   0.000  1.00  0.00    -0.031 C 
HETATM    9  C   UNL     1       4.330   0.500   0.000  1.00  0.00     0.036 C 
ENDBRANCH   1   7
TORSDOF 3
