REMARK  7 active torsions:
REMARK  status: ('A' for Active; 'I' for Inactive)
REMARK    1  A    between atoms: S_2  and  C_3 
REMARK    2  A    between atoms: C_3  and  C_4 
REMARK    3  A    between atoms: C_4  and  C_5 
REMARK    4  A    between atoms: C_5  and  O_6 
REMARK    5  A    between atoms: O_6  and  C_7 
REMARK    6  A    between atoms: C_7  and  C_8 
REMARK    7  A    between atoms: C_8  and  N_9 
ROOT
HETATM    1  O   UNL     1       0.841  -0.524  -0.095  1.00  0.00    -0.389 OA
ENDROOT
BRANCH   1   2
HETATM    2  C   UNL     1       2.008   0.244  -0.378  1.00  0.00     0.168 C 
BRANCH   2   3
HETATM    3  C   UNL     1       3.231  -0.655  -0.212  1.00  0.00     0.034 C 
BRANCH   3   4
HETATM    4  C   UNL     1       4.483   0.046  -0.729  1.00  0.00     0.041 C 
BRANCH   4   5
HETATM    5  S   UNL     1       6.062  -0.500   0.000  1.00  0.00    -0.294 SA
HETATM    6  C   UNL     1       6.062  -1.500   0.000  1.00  0.00     0.247 C 
ENDBRANCH   4   5
ENDBRANCH   3   4
ENDBRANCH   2   3
ENDBRANCH   1   2
BRANCH   1   7
HETATM    7  C   UNL     1      -0.340   0.279  -0.139  1.00  0.00     0.197 C 
BRANCH   7   8
HETATM    8  C   UNL     1      -1.559  -0.639  -0.003  1.00  0.00     0.292 C 
BRANCH   8   9
HETATM    9  N   UNL     1      -2.816   0.107   0.051  1.00  0.00     0.080 N 
HETATM   10  H   UNL     1      -2.842   0.662   0.903  1.00  0.00     0.312 HD
HETATM   11  H   UNL     1      -3.586  -0.558   0.127  1.00  0.00     0.312 HD
ENDBRANCH   8   9
ENDBRANCH   7   8
ENDBRANCH   1   7
TORSDOF 7
