REMARK  14 active torsions:
REMARK  status: ('A' for Active; 'I' for Inactive)
REMARK    1  A    between atoms: C_2  and  C_4 
REMARK    2  A    between atoms: C_4  and  C_5 
REMARK    3  A    between atoms: C_5  and  C_7 
REMARK    4  A    between atoms: C_7  and  O_8 
REMARK    5  A    between atoms: C_7  and  C_9 
REMARK    6  A    between atoms: C_9  and  C_11 
REMARK    7  A    between atoms: C_11  and  C_12 
REMARK    8  A    between atoms: C_11  and  C_28 
REMARK    9  A    between atoms: C_12  and  C_13 
REMARK   10  A    between atoms: C_13  and  N_14 
REMARK   11  A    between atoms: C_17  and  C_18 
REMARK   12  A    between atoms: C_18  and  O_20 
REMARK   13  A    between atoms: C_21  and  C_22 
REMARK   14  A    between atoms: C_28  and  C_30 
ROOT
HETATM    1  C   UNL     1       0.927  -0.597   1.149  1.00  0.00     0.135 C 
ENDROOT
BRANCH   1   2
HETATM    2  C   UNL     1       0.227  -1.655   0.295  1.00  0.00     0.174 C 
HETATM    3  O   UNL     1      -0.907  -1.560  -0.186  1.00  0.00    -0.294 OA
BRANCH   2   4
HETATM    4  C   UNL     1       0.934  -2.977   0.024  1.00  0.00     0.258 C 
BRANCH   4   5
HETATM    5  C   UNL     1       1.257  -3.812   1.279  1.00  0.00     0.169 C 
HETATM    6  O   UNL     1       0.935  -3.447   2.408  1.00  0.00    -0.294 OA
BRANCH   5   7
HETATM    7  C   UNL     1       2.068  -5.106   1.080  1.00  0.00     0.159 C 
BRANCH   7   8
HETATM    8  C   UNL     1       1.500  -6.062   0.000  1.00  0.00     0.130 C 
HETATM    9  C   UNL     1       0.500  -6.062   0.000  1.00  0.00     0.091 C 
HETATM   10  O   UNL     1       2.279  -6.802  -0.606  1.00  0.00    -0.298 OA
ENDBRANCH   7   8
ENDBRANCH   5   7
ENDBRANCH   4   5
BRANCH   4  11
HETATM   11  O   UNL     1       0.074  -3.683  -0.883  1.00  0.00    -0.380 OA
HETATM   12  H   UNL     1      -0.749  -3.138  -0.945  1.00  0.00     0.211 HD
ENDBRANCH   4  11
ENDBRANCH   2   4
ENDBRANCH   1   2
BRANCH   1  13
HETATM   13  C   UNL     1       2.428  -0.574   0.747  1.00  0.00     0.042 C 
BRANCH  13  14
HETATM   14  C   UNL     1       3.249   0.687   0.889  1.00  0.00     0.154 C 
BRANCH  14  15
HETATM   15  N   UNL     1       4.703   0.550   0.900  1.00  0.00    -0.247 N 
HETATM   16  C   UNL     1       5.628  -0.423   0.558  1.00  0.00     0.122 C 
HETATM   17  C   UNL     1       6.821   0.096   1.066  1.00  0.00     0.184 C 
HETATM   18  N   UNL     1       6.633   1.388   1.467  1.00  0.00    -0.123 NA
HETATM   19  N   UNL     1       5.350   1.662   1.344  1.00  0.00    -0.065 NA
BRANCH  16  20
HETATM   20  C   UNL     1       5.555  -1.727  -0.193  1.00  0.00     0.109 A 
HETATM   21  N   UNL     1       4.474  -2.504  -0.369  1.00  0.00    -0.171 NA
HETATM   22  N   UNL     1       4.942  -3.561  -1.084  1.00  0.00    -0.285 N 
HETATM   23  C   UNL     1       6.268  -3.504  -1.358  1.00  0.00     0.114 A 
HETATM   24  C   UNL     1       4.110  -4.673  -1.465  1.00  0.00     0.179 C 
HETATM   25  C   UNL     1       6.682  -2.305  -0.851  1.00  0.00     0.054 A 
ENDBRANCH  16  20
BRANCH  17  26
HETATM   26  C   UNL     1       8.103  -0.556   1.230  1.00  0.00     0.200 C 
HETATM   27  O   UNL     1       8.288  -1.716   1.574  1.00  0.00    -0.645 OA
BRANCH  26  28
HETATM   28  O   UNL     1       9.174   0.213   0.916  1.00  0.00    -0.771 OA
HETATM   29  H   UNL     1       9.928  -0.390   1.063  1.00  0.00     0.167 HD
ENDBRANCH  26  28
ENDBRANCH  17  26
ENDBRANCH  14  15
ENDBRANCH  13  14
ENDBRANCH   1  13
BRANCH   1  30
HETATM   30  C   UNL     1       0.225   0.753   1.329  1.00  0.00     0.174 C 
HETATM   31  O   UNL     1       0.764   1.662   1.965  1.00  0.00    -0.291 OA
BRANCH  30  32
HETATM   32  C   UNL     1      -1.230   0.861   1.017  1.00  0.00     0.060 A 
HETATM   33  C   UNL     1      -1.669   1.513  -0.163  1.00  0.00     0.185 A 
HETATM   34  C   UNL     1      -3.064   1.418  -0.376  1.00  0.00     0.056 A 
HETATM   35  O   UNL     1      -0.903   2.102  -0.999  1.00  0.00    -0.287 OA
HETATM   36  C   UNL     1      -3.940   0.715   0.469  1.00  0.00     0.004 A 
HETATM   37  C   UNL     1      -3.457   0.092   1.610  1.00  0.00     0.001 A 
HETATM   38  C   UNL     1      -2.101   0.182   1.900  1.00  0.00     0.019 A 
ENDBRANCH  30  32
ENDBRANCH   1  30
TORSDOF 14
