REMARK  5 active torsions:
REMARK  status: ('A' for Active; 'I' for Inactive)
REMARK    1  A    between atoms: N_4  and  C_5 
REMARK    2  A    between atoms: C_5  and  C_6 
REMARK    3  A    between atoms: C_6  and  O_8 
REMARK    4  A    between atoms: O_8  and  C_9 
REMARK    5  A    between atoms: C_9  and  C_10 
ROOT
HETATM    1  C   UNL     1       4.070  -1.197   0.554  1.00  0.00     0.278 C 
HETATM    2  O   UNL     1       4.577  -1.075   1.664  1.00  0.00    -0.263 OA
ENDROOT
BRANCH   1   3
HETATM    3  C   UNL     1       2.806  -1.958   0.296  1.00  0.00     0.257 C 
BRANCH   3   4
HETATM    4  N   UNL     1       1.667  -1.069   0.235  1.00  0.00    -0.274 N 
HETATM    5  C   UNL     1       1.577   0.249   0.586  1.00  0.00     0.136 C 
HETATM    6  C   UNL     1       0.435   0.674  -0.054  1.00  0.00     0.065 C 
HETATM    7  C   UNL     1      -0.025   2.047  -0.327  1.00  0.00     0.073 C 
HETATM    8  N   UNL     1      -0.214  -0.410  -0.579  1.00  0.00    -0.164 NA
HETATM    9  N   UNL     1       0.547  -1.478  -0.387  1.00  0.00     0.005 NA
ENDBRANCH   3   4
ENDBRANCH   1   3
BRANCH   1  10
HETATM   10  O   UNL     1       4.485  -0.554  -0.573  1.00  0.00    -0.316 OA
BRANCH  10  11
HETATM   11  C   UNL     1       5.324   0.587  -0.346  1.00  0.00     0.217 C 
BRANCH  11  12
HETATM   12  C   UNL     1       6.805   0.297  -0.299  1.00  0.00    -0.034 A 
HETATM   13  C   UNL     1       7.334  -0.986  -0.464  1.00  0.00     0.009 A 
HETATM   14  C   UNL     1       8.712  -1.198  -0.381  1.00  0.00     0.001 A 
HETATM   15  C   UNL     1       9.571  -0.128  -0.139  1.00  0.00     0.000 A 
HETATM   16  C   UNL     1       9.056   1.157   0.018  1.00  0.00     0.001 A 
HETATM   17  C   UNL     1       7.680   1.368  -0.062  1.00  0.00     0.009 A 
ENDBRANCH  11  12
ENDBRANCH  10  11
ENDBRANCH   1  10
TORSDOF 5
