REMARK  13 active torsions:
REMARK  status: ('A' for Active; 'I' for Inactive)
REMARK    1  A    between atoms: C_2  and  C_4 
REMARK    2  A    between atoms: C_4  and  C_5 
REMARK    3  A    between atoms: C_5  and  C_7 
REMARK    4  A    between atoms: C_7  and  C_8 
REMARK    5  A    between atoms: C_7  and  N_23 
REMARK    6  A    between atoms: C_8  and  C_10 
REMARK    7  A    between atoms: C_10  and  C_11 
REMARK    8  A    between atoms: C_10  and  C_14 
REMARK    9  A    between atoms: C_11  and  C_12 
REMARK   10  A    between atoms: C_12  and  O_13 
REMARK   11  A    between atoms: C_14  and  C_16 
REMARK   12  A    between atoms: C_21  and  O_22 
REMARK   13  A    between atoms: C_27  and  C_28 
ROOT
HETATM    1  C   UNL     1      -0.797  -1.987   1.157  1.00  0.00     0.216 C 
ENDROOT
BRANCH   1   2
HETATM    2  C   UNL     1      -0.607  -3.522   1.089  1.00  0.00     0.159 C 
HETATM    3  O   UNL     1      -1.035  -4.218   2.012  1.00  0.00    -0.295 OA
BRANCH   2   4
HETATM    4  C   UNL     1      -0.068  -4.159  -0.187  1.00  0.00     0.158 C 
BRANCH   4   5
HETATM    5  C   UNL     1      -0.001  -5.669  -0.170  1.00  0.00     0.130 C 
HETATM    6  C   UNL     1      -1.280  -6.457  -0.036  1.00  0.00     0.091 C 
HETATM    7  O   UNL     1       1.067  -6.243  -0.399  1.00  0.00    -0.298 OA
ENDBRANCH   4   5
ENDBRANCH   2   4
ENDBRANCH   1   2
BRANCH   1   8
HETATM    8  C   UNL     1      -2.328  -1.635   0.933  1.00  0.00     0.164 C 
HETATM    9  O   UNL     1      -3.000  -1.233   1.890  1.00  0.00    -0.295 OA
BRANCH   8  10
HETATM   10  C   UNL     1      -3.019  -1.871  -0.422  1.00  0.00     0.134 C 
BRANCH  10  11
HETATM   11  C   UNL     1      -3.357  -3.369  -0.626  1.00  0.00     0.046 C 
BRANCH  11  12
HETATM   12  C   UNL     1      -4.682  -3.930  -0.113  1.00  0.00     0.165 C 
BRANCH  12  13
HETATM   13  O   UNL     1      -4.537  -5.354  -0.081  1.00  0.00    -0.401 OA
HETATM   14  H   UNL     1      -5.405  -5.720   0.164  1.00  0.00     0.209 HD
ENDBRANCH  12  13
ENDBRANCH  11  12
ENDBRANCH  10  11
BRANCH  10  15
HETATM   15  C   UNL     1      -4.266  -1.004  -0.722  1.00  0.00     0.173 C 
HETATM   16  O   UNL     1      -5.218  -1.464  -1.354  1.00  0.00    -0.291 OA
BRANCH  15  17
HETATM   17  C   UNL     1      -4.277   0.463  -0.455  1.00  0.00     0.044 A 
HETATM   18  C   UNL     1      -5.438   1.147  -0.065  1.00  0.00     0.079 A 
HETATM   19  C   UNL     1      -5.419   2.534   0.123  1.00  0.00     0.037 A 
HETATM   20  C   UNL     1      -4.234   3.245  -0.057  1.00  0.00     0.003 A 
HETATM   21  C   UNL     1      -3.088   2.579  -0.474  1.00  0.00     0.001 A 
HETATM   22  C   UNL     1      -3.122   1.202  -0.708  1.00  0.00     0.018 A 
BRANCH  18  23
HETATM   23  O   UNL     1      -6.608   0.473   0.152  1.00  0.00    -0.360 OA
HETATM   24  H   UNL     1      -7.312   1.106   0.368  1.00  0.00     0.217 HD
ENDBRANCH  18  23
ENDBRANCH  15  17
ENDBRANCH  10  15
ENDBRANCH   8  10
ENDBRANCH   1   8
BRANCH   1  25
HETATM   25  N   UNL     1       0.218  -1.275   0.364  1.00  0.00    -0.142 NA
HETATM   26  C   UNL     1       0.222   0.079   0.258  1.00  0.00     0.243 C 
HETATM   27  C   UNL     1       1.507   0.484  -0.423  1.00  0.00     0.253 C 
HETATM   28  O   UNL     1      -0.647   0.810   0.698  1.00  0.00    -0.276 OA
HETATM   29  O   UNL     1       2.338  -0.575   0.048  1.00  0.00    -0.289 OA
HETATM   30  C   UNL     1       1.539  -1.514   0.620  1.00  0.00     0.349 C 
HETATM   31  O   UNL     1       1.977  -2.409   1.317  1.00  0.00    -0.245 OA
BRANCH  27  32
HETATM   32  C   UNL     1       2.080   1.853  -0.127  1.00  0.00    -0.020 A 
HETATM   33  C   UNL     1       1.263   2.995  -0.158  1.00  0.00     0.010 A 
HETATM   34  C   UNL     1       1.799   4.276  -0.004  1.00  0.00     0.001 A 
HETATM   35  C   UNL     1       3.169   4.442   0.164  1.00  0.00     0.000 A 
HETATM   36  C   UNL     1       4.001   3.326   0.190  1.00  0.00     0.001 A 
HETATM   37  C   UNL     1       3.462   2.043   0.043  1.00  0.00     0.010 A 
ENDBRANCH  27  32
ENDBRANCH   1  25
TORSDOF 13
