REMARK  4 active torsions:
REMARK  status: ('A' for Active; 'I' for Inactive)
REMARK    1  A    between atoms: C_2  and  C_3 
REMARK    2  A    between atoms: C_3  and  C_4 
REMARK    3  A    between atoms: C_4  and  N_5 
REMARK    4  A    between atoms: C_12  and  N_13 
ROOT
HETATM    1  N   UNL     1       2.515  -0.200  -1.019  1.00  0.00    -0.321 N 
HETATM    2  C   UNL     1       3.693  -0.809  -0.614  1.00  0.00     0.251 A 
HETATM    3  O   UNL     1       4.808  -0.314  -0.581  1.00  0.00    -0.268 OA
HETATM    4  C   UNL     1       3.400  -2.221  -0.313  1.00  0.00     0.012 A 
HETATM    5  C   UNL     1       4.414  -3.173   0.194  1.00  0.00     0.054 C 
HETATM    6  C   UNL     1       2.123  -2.432  -0.661  1.00  0.00    -0.029 A 
HETATM    7  C   UNL     1       1.387  -3.727  -0.547  1.00  0.00     0.048 C 
HETATM    8  C   UNL     1       1.447  -1.174  -1.150  1.00  0.00     0.239 A 
ENDROOT
BRANCH   8   9
HETATM    9  N   UNL     1       0.202  -0.916  -0.422  1.00  0.00    -0.256 N 
HETATM   10  N   UNL     1       0.188  -0.769   0.920  1.00  0.00     0.006 NA
HETATM   11  N   UNL     1      -1.070  -0.876   1.323  1.00  0.00    -0.164 NA
HETATM   12  C   UNL     1      -1.858  -1.089   0.225  1.00  0.00     0.065 A 
HETATM   13  C   UNL     1      -1.072  -1.061  -0.906  1.00  0.00     0.139 A 
HETATM   14  C   UNL     1      -3.299  -1.364   0.371  1.00  0.00     0.073 C 
ENDBRANCH   8   9
BRANCH   1  15
HETATM   15  C   UNL     1       2.551   1.055  -1.757  1.00  0.00     0.129 C 
BRANCH  15  16
HETATM   16  C   UNL     1       1.342   1.970  -1.566  1.00  0.00     0.020 C 
BRANCH  16  17
HETATM   17  C   UNL     1       1.182   2.502  -0.140  1.00  0.00    -0.003 C 
HETATM   18  C   UNL     1       2.165   3.611   0.203  1.00  0.00     0.005 C 
ENDBRANCH  16  17
ENDBRANCH  15  16
ENDBRANCH   1  15
TORSDOF 4
