REMARK  14 active torsions:
REMARK  status: ('A' for Active; 'I' for Inactive)
REMARK    1  A    between atoms: C_2  and  C_4 
REMARK    2  A    between atoms: C_4  and  C_5 
REMARK    3  A    between atoms: C_5  and  C_7 
REMARK    4  A    between atoms: C_7  and  O_8 
REMARK    5  A    between atoms: C_7  and  C_9 
REMARK    6  A    between atoms: C_9  and  C_11 
REMARK    7  A    between atoms: C_11  and  C_12 
REMARK    8  A    between atoms: C_11  and  C_15 
REMARK    9  A    between atoms: C_12  and  C_13 
REMARK   10  A    between atoms: C_13  and  O_14 
REMARK   11  A    between atoms: C_15  and  O_16 
REMARK   12  A    between atoms: C_15  and  C_17 
REMARK   13  A    between atoms: C_15  and  C_24 
REMARK   14  A    between atoms: C_22  and  O_23 
ROOT
HETATM    1  C   UNL     1      -0.215  -0.244  -0.455  1.00  0.00     0.128 C 
ENDROOT
BRANCH   1   2
HETATM    2  C   UNL     1      -1.148   0.930   0.196  1.00  0.00     0.102 C 
BRANCH   2   3
HETATM    3  C   UNL     1      -0.496   2.315   0.303  1.00  0.00     0.170 C 
HETATM    4  O   UNL     1      -0.572   3.113  -0.632  1.00  0.00    -0.294 OA
BRANCH   3   5
HETATM    5  C   UNL     1       0.254   2.662   1.598  1.00  0.00     0.257 C 
BRANCH   5   6
HETATM    6  C   UNL     1       0.464   4.170   1.753  1.00  0.00     0.169 C 
HETATM    7  O   UNL     1       0.064   4.755   2.766  1.00  0.00    -0.294 OA
BRANCH   6   8
HETATM    8  C   UNL     1       1.345   4.859   0.743  1.00  0.00     0.159 C 
BRANCH   8   9
HETATM    9  C   UNL     1       0.817   6.161   0.209  1.00  0.00     0.130 C 
HETATM   10  C   UNL     1       1.850   7.138  -0.295  1.00  0.00     0.091 C 
HETATM   11  O   UNL     1      -0.385   6.381   0.059  1.00  0.00    -0.298 OA
ENDBRANCH   8   9
ENDBRANCH   6   8
ENDBRANCH   5   6
BRANCH   5  12
HETATM   12  O   UNL     1      -0.336   2.130   2.780  1.00  0.00    -0.380 OA
HETATM   13  H   UNL     1      -0.618   2.903   3.316  1.00  0.00     0.211 HD
ENDBRANCH   5  12
ENDBRANCH   3   5
ENDBRANCH   2   3
BRANCH   2  14
HETATM   14  C   UNL     1      -2.512   1.165  -0.539  1.00  0.00     0.042 C 
BRANCH  14  15
HETATM   15  C   UNL     1      -3.501   2.219  -0.005  1.00  0.00     0.165 C 
BRANCH  15  16
HETATM   16  O   UNL     1      -2.911   3.271   0.733  1.00  0.00    -0.401 OA
HETATM   17  H   UNL     1      -2.548   3.905   0.080  1.00  0.00     0.209 HD
ENDBRANCH  15  16
ENDBRANCH  14  15
ENDBRANCH   2  14
ENDBRANCH   1   2
BRANCH   1  18
HETATM   18  O   UNL     1      -0.261  -0.089  -1.886  1.00  0.00    -0.381 OA
HETATM   19  H   UNL     1       0.164   0.766  -2.090  1.00  0.00     0.211 HD
ENDBRANCH   1  18
BRANCH   1  20
HETATM   20  C   UNL     1       1.317  -0.227  -0.109  1.00  0.00     0.013 C 
HETATM   21  C   UNL     1       2.174   0.840  -0.467  1.00  0.00     0.075 C 
HETATM   22  C   UNL     1       3.545   0.887  -0.153  1.00  0.00     0.037 C 
HETATM   23  C   UNL     1       4.165  -0.222   0.391  1.00  0.00     0.003 C 
HETATM   24  C   UNL     1       3.401  -1.347   0.638  1.00  0.00     0.001 C 
HETATM   25  C   UNL     1       2.008  -1.325   0.436  1.00  0.00     0.013 C 
BRANCH  21  26
HETATM   26  O   UNL     1       1.681   1.875  -1.207  1.00  0.00    -0.360 OA
HETATM   27  H   UNL     1       2.420   2.393  -1.573  1.00  0.00     0.217 HD
ENDBRANCH  21  26
ENDBRANCH   1  20
BRANCH   1  28
HETATM   28  C   UNL     1      -0.994  -1.608  -0.099  1.00  0.00     0.218 C 
HETATM   29  O   UNL     1      -2.278  -1.646  -0.746  1.00  0.00    -0.285 OA
HETATM   30  C   UNL     1      -2.721  -2.919  -0.761  1.00  0.00     0.408 C 
HETATM   31  O   UNL     1      -3.870  -3.264  -1.013  1.00  0.00    -0.229 OA
HETATM   32  O   UNL     1      -1.729  -3.780  -0.408  1.00  0.00    -0.274 OA
HETATM   33  C   UNL     1      -0.529  -3.011  -0.415  1.00  0.00     0.262 C 
HETATM   34 CL   UNL     1       0.298  -3.272  -1.955  1.00  0.00    -0.092 Cl
ENDBRANCH   1  28
TORSDOF 14
