REMARK  7 active torsions:
REMARK  status: ('A' for Active; 'I' for Inactive)
REMARK    1  A    between atoms: O_2  and  C_3 
REMARK    2  A    between atoms: C_7  and  C_8 
REMARK    3  A    between atoms: C_8  and  C_9 
REMARK    4  A    between atoms: C_9  and  O_10 
REMARK    5  A    between atoms: C_9  and  C_11 
REMARK    6  A    between atoms: C_11  and  O_12 
REMARK    7  A    between atoms: O_12  and  C_13 
ROOT
HETATM    1  C   UNL     1      -2.262   3.510  -0.049  1.00  0.00     0.146 C 
ENDROOT
BRANCH   1   2
HETATM    2  C   UNL     1      -1.353   2.759   0.964  1.00  0.00     0.072 C 
BRANCH   2   3
HETATM    3  C   UNL     1      -1.368   1.242   0.904  1.00  0.00    -0.053 C 
HETATM    4  C   UNL     1      -2.491   0.519   1.345  1.00  0.00     0.007 C 
HETATM    5  C   UNL     1      -2.583  -0.860   1.169  1.00  0.00     0.003 C 
HETATM    6  C   UNL     1      -1.496  -1.560   0.664  1.00  0.00     0.037 C 
HETATM    7  C   UNL     1      -0.311  -0.881   0.351  1.00  0.00     0.068 C 
HETATM    8  C   UNL     1      -0.266   0.519   0.430  1.00  0.00     0.044 C 
BRANCH   7   9
HETATM    9  O   UNL     1       0.866  -1.500   0.000  1.00  0.00    -0.356 OA
HETATM   10  C   UNL     1       0.866  -2.500   0.000  1.00  0.00     0.210 C 
ENDBRANCH   7   9
ENDBRANCH   2   3
ENDBRANCH   1   2
BRANCH   1  11
HETATM   11  O   UNL     1      -2.330   4.883   0.353  1.00  0.00    -0.393 OA
HETATM   12  H   UNL     1      -3.041   5.299  -0.170  1.00  0.00     0.210 HD
ENDBRANCH   1  11
BRANCH   1  13
HETATM   13  C   UNL     1      -3.673   2.913  -0.090  1.00  0.00     0.207 C 
BRANCH  13  14
HETATM   14  O   UNL     1      -4.580   3.569  -0.991  1.00  0.00    -0.343 OA
BRANCH  14  15
HETATM   15  C   UNL     1      -5.779   2.859  -0.929  1.00  0.00     0.136 C 
HETATM   16  C   UNL     1      -6.984   3.482  -0.308  1.00  0.00     0.186 C 
HETATM   17  C   UNL     1      -8.241   2.650  -0.274  1.00  0.00     0.112 C 
HETATM   18  O   UNL     1      -6.955   4.637   0.123  1.00  0.00    -0.290 OA
HETATM   19  C   UNL     1      -7.831   1.204  -0.088  1.00  0.00     0.182 C 
HETATM   20  O   UNL     1      -6.990   0.766  -1.163  1.00  0.00    -0.360 OA
HETATM   21  C   UNL     1      -5.914   1.591  -1.360  1.00  0.00     0.175 C 
ENDBRANCH  14  15
ENDBRANCH  13  14
ENDBRANCH   1  13
TORSDOF 7
