REMARK  4 active torsions:
REMARK  status: ('A' for Active; 'I' for Inactive)
REMARK    1  A    between atoms: S_2  and  C_3 
REMARK    2  A    between atoms: C_3  and  N_5 
REMARK       I    between atoms: N_5  and  C_6 
REMARK    3  A    between atoms: C_6  and  C_8 
REMARK    4  A    between atoms: C_12  and  N_13 
ROOT
HETATM    1  C   UNL     1      -0.066  -0.210  -0.000  1.00  0.00     0.034 A 
HETATM    2  C   UNL     1       1.252  -0.703   0.000  1.00  0.00     0.017 A 
HETATM    3  C   UNL     1       1.515  -2.076   0.000  1.00  0.00     0.003 A 
HETATM    4  C   UNL     1       0.460  -2.980  -0.000  1.00  0.00     0.036 A 
HETATM    5  C   UNL     1      -0.858  -2.506  -0.000  1.00  0.00     0.103 A 
HETATM    6  C   UNL     1      -1.127  -1.129  -0.000  1.00  0.00     0.053 A 
ENDROOT
BRANCH   1   7
HETATM    7  C   UNL     1      -0.410   1.259   0.000  1.00  0.00     0.257 C 
HETATM    8  N   UNL     1       0.678   2.131   0.000  1.00  0.00    -0.308 N 
HETATM    9  H   UNL     1       1.564   1.687  -0.000  1.00  0.00     0.170 HD
HETATM   10  O   UNL     1      -1.586   1.594   0.000  1.00  0.00    -0.267 OA
BRANCH   8  11
HETATM   11  C   UNL     1       0.776   3.507   0.000  1.00  0.00     0.141 C 
HETATM   12  S   UNL     1      -0.494   4.594   0.000  1.00  0.00    -0.052 SA
BRANCH  11  13
HETATM   13  S   UNL     1       2.427   4.134  -0.000  1.00  0.00    -0.105 SA
HETATM   14  C   UNL     1       3.650   2.867   0.000  1.00  0.00     0.098 C 
ENDBRANCH  11  13
ENDBRANCH   8  11
ENDBRANCH   1   7
BRANCH   5  15
HETATM   15  N   UNL     1      -1.966  -3.468  -0.000  1.00  0.00    -0.116 N 
HETATM   16  O   UNL     1      -3.119  -3.021   0.000  1.00  0.00    -0.532 OA
HETATM   17  O   UNL     1      -1.677  -4.674   0.000  1.00  0.00    -0.532 OA
ENDBRANCH   5  15
TORSDOF 4
