REMARK  3 active torsions:
REMARK  status: ('A' for Active; 'I' for Inactive)
REMARK    1  A    between atoms: C_2  and  C_3 
REMARK    2  A    between atoms: C_4  and  C_6 
REMARK    3  A    between atoms: C_6  and  S_8 
ROOT
HETATM    1  C   UNL     1       3.046  -1.901   0.016  1.00  0.00    -0.016 C 
HETATM    2  C   UNL     1       3.067  -0.554   0.008  1.00  0.00    -0.009 C 
HETATM    3  C   UNL     1       4.305   0.230   0.341  1.00  0.00     0.052 C 
ENDROOT
BRANCH   2   4
HETATM    4  C   UNL     1       1.911   0.235  -0.486  1.00  0.00     0.214 C 
HETATM    5  O   UNL     1       1.491   0.146  -1.632  1.00  0.00    -0.280 OA
BRANCH   4   6
HETATM    6  S   UNL     1       1.210   1.308   0.710  1.00  0.00    -0.092 SA
HETATM    7  C   UNL     1      -0.521   1.183   0.206  1.00  0.00     0.099 C 
ENDBRANCH   4   6
ENDBRANCH   2   4
BRANCH   1   8
HETATM    8  C   UNL     1       1.954  -2.875  -0.345  1.00  0.00     0.023 C 
HETATM    9  C   UNL     1       0.516  -2.523   0.006  1.00  0.00     0.009 C 
ENDBRANCH   1   8
TORSDOF 3
