REMARK  2 active torsions:
REMARK  status: ('A' for Active; 'I' for Inactive)
REMARK    1  A    between atoms: N_4  and  C_5 
REMARK    2  A    between atoms: C_5  and  C_6 
ROOT
HETATM    1  C   UNL     1       1.898   0.081   0.110  1.00  0.00     0.073 C 
HETATM    2  C   UNL     1       0.580  -0.582   0.119  1.00  0.00     0.065 A 
HETATM    3  C   UNL     1       0.236  -1.871  -0.218  1.00  0.00     0.136 A 
HETATM    4  N   UNL     1      -1.101  -1.933   0.033  1.00  0.00    -0.282 N 
HETATM    5  N   UNL     1      -1.570  -0.745   0.452  1.00  0.00     0.004 NA
HETATM    6  N   UNL     1      -0.543   0.090   0.520  1.00  0.00    -0.164 NA
ENDROOT
BRANCH   4   7
HETATM    7  C   UNL     1      -2.014  -3.049  -0.095  1.00  0.00     0.157 C 
BRANCH   7   8
HETATM    8  C   UNL     1      -1.356  -4.400   0.103  1.00  0.00     0.106 C 
HETATM    9 BR   UNL     1      -2.705  -5.805   0.107  1.00  0.00    -0.095 Br
ENDBRANCH   7   8
ENDBRANCH   4   7
TORSDOF 2
