REMARK  1 active torsions:
REMARK  status: ('A' for Active; 'I' for Inactive)
REMARK    1  A    between atoms: S_2  and  C_3 
ROOT
HETATM    1  C   UNL     1       1.055  -0.877   0.006  1.00  0.00     0.006 A 
HETATM    2  C   UNL     1       0.818  -2.372   0.001  1.00  0.00     0.019 A 
HETATM    3  C   UNL     1      -0.480  -2.885   0.000  1.00  0.00     0.001 A 
HETATM    4  C   UNL     1      -1.542  -2.007   0.000  1.00  0.00     0.001 A 
HETATM    5  C   UNL     1      -1.295  -0.652  -0.000  1.00  0.00     0.008 A 
HETATM    6  C   UNL     1       0.000   0.000   0.000  1.00  0.00    -0.045 A 
HETATM    7  C   UNL     1       0.000   1.000   0.000  1.00  0.00     0.049 C 
ENDROOT
BRANCH   1   8
HETATM    8  S   UNL     1       2.734  -0.203  -0.010  1.00  0.00    -0.134 SA
HETATM    9  C   UNL     1       3.997  -1.471   0.209  1.00  0.00     0.095 C 
ENDBRANCH   1   8
TORSDOF 1
