REMARK  3 active torsions:
REMARK  status: ('A' for Active; 'I' for Inactive)
REMARK    1  A    between atoms: C_2  and  C_4 
REMARK    2  A    between atoms: C_4  and  O_7 
REMARK    3  A    between atoms: O_7  and  C_8 
ROOT
HETATM    1  C   UNL     1      -0.886  -0.300  -0.223  1.00  0.00     0.126 A 
HETATM    2  C   UNL     1      -1.924   0.551  -0.132  1.00  0.00     0.040 A 
HETATM    3  C   UNL     1      -1.737   2.030  -0.046  1.00  0.00     0.205 A 
HETATM    4  O   UNL     1      -0.408   2.530  -0.189  1.00  0.00    -0.355 OA
HETATM    5  C   UNL     1       0.592   1.600  -0.236  1.00  0.00     0.192 A 
HETATM    6  C   UNL     1       0.477   0.259  -0.250  1.00  0.00     0.226 A 
HETATM    7  O   UNL     1       1.392  -0.609  -0.280  1.00  0.00    -0.283 OA
ENDROOT
BRANCH   1   8
HETATM    8  O   UNL     1      -0.988  -1.676  -0.293  1.00  0.00    -0.274 OA
BRANCH   8   9
HETATM    9  C   UNL     1      -2.157  -2.312   0.176  1.00  0.00     0.414 C 
HETATM   10  F   UNL     1      -2.537  -1.798   1.382  1.00  0.00    -0.168 F 
HETATM   11  F   UNL     1      -3.185  -2.054  -0.689  1.00  0.00    -0.168 F 
BRANCH   9  12
HETATM   12  C   UNL     1      -1.937  -3.802   0.308  1.00  0.00     0.186 C 
HETATM   13  C   UNL     1      -2.798  -4.744  -0.107  1.00  0.00     0.061 C 
HETATM   14  F   UNL     1      -0.801  -4.246   0.901  1.00  0.00    -0.202 F 
ENDBRANCH   9  12
ENDBRANCH   8   9
ENDBRANCH   1   8
TORSDOF 3
