REMARK  3 active torsions:
REMARK  status: ('A' for Active; 'I' for Inactive)
REMARK    1  A    between atoms: C_5  and  C_6 
REMARK    2  A    between atoms: C_6  and  O_8 
REMARK    3  A    between atoms: O_8  and  C_9 
ROOT
HETATM    1  C   UNL     1      -3.626   1.377  -0.217  1.00  0.00     0.300 C 
HETATM    2  O   UNL     1      -3.743   2.234  -1.078  1.00  0.00    -0.259 OA
ENDROOT
BRANCH   1   3
HETATM    3  C   UNL     1      -2.416   0.557  -0.075  1.00  0.00     0.057 A 
HETATM    4  C   UNL     1      -2.479  -0.826   0.096  1.00  0.00     0.021 A 
HETATM    5  C   UNL     1      -1.300  -1.566   0.065  1.00  0.00     0.028 A 
HETATM    6  C   UNL     1      -0.096  -0.899  -0.148  1.00  0.00     0.030 A 
HETATM    7  C   UNL     1       1.179  -1.674  -0.286  1.00  0.00     0.070 C 
HETATM    8  N   UNL     1      -0.017   0.449  -0.269  1.00  0.00    -0.265 NA
HETATM    9  C   UNL     1      -1.177   1.149  -0.243  1.00  0.00     0.134 A 
ENDBRANCH   1   3
BRANCH   1  10
HETATM   10  O   UNL     1      -4.552   0.942   0.684  1.00  0.00    -0.269 OA
BRANCH  10  11
HETATM   11  C   UNL     1      -5.803   1.500   0.419  1.00  0.00     0.146 C 
HETATM   12  C   UNL     1      -6.048   2.958   0.591  1.00  0.00     0.186 C 
HETATM   13  C   UNL     1      -7.274   3.496  -0.093  1.00  0.00     0.112 C 
HETATM   14  O   UNL     1      -5.270   3.670   1.223  1.00  0.00    -0.290 OA
HETATM   15  C   UNL     1      -8.390   2.492   0.122  1.00  0.00     0.182 C 
HETATM   16  O   UNL     1      -8.068   1.188  -0.375  1.00  0.00    -0.360 OA
HETATM   17  C   UNL     1      -6.809   0.755  -0.053  1.00  0.00     0.175 C 
ENDBRANCH  10  11
ENDBRANCH   1  10
TORSDOF 3
