REMARK  2 active torsions:
REMARK  status: ('A' for Active; 'I' for Inactive)
REMARK       I    between atoms: C_3  and  N_5 
REMARK    1  A    between atoms: N_5  and  C_6 
REMARK    2  A    between atoms: N_5  and  C_8 
ROOT
HETATM    1  C   UNL     1       2.940  -1.448  -0.147  1.00  0.00     0.022 C 
HETATM    2  C   UNL     1       2.748  -0.272   0.013  1.00  0.00    -0.016 C 
HETATM    3  C   UNL     1       2.594   1.157   0.208  1.00  0.00     0.304 C 
HETATM    4  O   UNL     1       3.648   1.763   0.356  1.00  0.00    -0.258 OA
HETATM    5  N   UNL     1       1.319   1.727   0.237  1.00  0.00    -0.281 N 
ENDROOT
BRANCH   5   6
HETATM    6  C   UNL     1       1.300   3.108   0.052  1.00  0.00     0.359 C 
HETATM    7  O   UNL     1       2.105   3.950   0.426  1.00  0.00    -0.283 OA
ENDBRANCH   5   6
BRANCH   5   8
HETATM    8  C   UNL     1       0.000   1.000   0.000  1.00  0.00     0.088 C 
HETATM    9  C   UNL     1      -1.136   1.738   0.816  1.00  0.00     0.032 C 
HETATM   10  C   UNL     1       0.000   0.000   0.000  1.00  0.00     0.032 C 
ENDBRANCH   5   8
TORSDOF 2
