REMARK  4 active torsions:
REMARK  status: ('A' for Active; 'I' for Inactive)
REMARK    1  A    between atoms: S_2  and  C_3 
REMARK    2  A    between atoms: C_3  and  C_5 
REMARK    3  A    between atoms: C_5  and  C_6 
REMARK    4  A    between atoms: C_6  and  C_7 
ROOT
HETATM    1  C   UNL     1      -0.892  -0.151  -0.146  1.00  0.00    -0.022 A 
HETATM    2  C   UNL     1      -1.368  -1.481  -0.224  1.00  0.00     0.147 A 
HETATM    3  N   UNL     1      -2.698  -1.559  -0.215  1.00  0.00    -0.187 NA
HETATM    4  N   UNL     1      -3.093  -0.279  -0.139  1.00  0.00    -0.289 N 
HETATM    5  C   UNL     1      -2.051   0.599  -0.092  1.00  0.00     0.117 A 
HETATM    6  H   UNL     1      -4.088  -0.077  -0.126  1.00  0.00     0.188 HD
ENDROOT
BRANCH   1   7
HETATM    7  C   UNL     1       0.501   0.386  -0.144  1.00  0.00     0.049 C 
BRANCH   7   8
HETATM    8  C   UNL     1       1.629  -0.646  -0.049  1.00  0.00     0.095 C 
BRANCH   8   9
HETATM    9  C   UNL     1       2.969   0.061  -0.103  1.00  0.00     0.185 C 
HETATM   10  O   UNL     1       3.068   1.285  -0.085  1.00  0.00    -0.286 OA
BRANCH   9  11
HETATM   11  S   UNL     1       4.445  -0.893  -0.232  1.00  0.00    -0.097 SA
HETATM   12  C   UNL     1       3.956  -2.563   0.207  1.00  0.00     0.098 C 
ENDBRANCH   9  11
ENDBRANCH   8   9
ENDBRANCH   7   8
ENDBRANCH   1   7
TORSDOF 4
