REMARK  3 active torsions:
REMARK  status: ('A' for Active; 'I' for Inactive)
REMARK    1  A    between atoms: C_2  and  N_3 
REMARK    2  A    between atoms: N_3  and  C_4 
REMARK    3  A    between atoms: C_4  and  C_5 
ROOT
HETATM    1  C   UNL     1       0.242  -0.883  -0.194  1.00  0.00     0.174 C 
HETATM    2  C   UNL     1       0.169   0.659   0.108  1.00  0.00     0.049 C 
HETATM    3  C   UNL     1       1.713   0.467   0.159  1.00  0.00     0.019 C 
HETATM    4  C   UNL     1       1.908  -0.491   1.317  1.00  0.00     0.275 C 
HETATM    5  N   UNL     1       0.814  -1.441   1.069  1.00  0.00     0.095 N 
HETATM    6  C   UNL     1       1.502  -0.493  -1.044  1.00  0.00     0.049 C 
HETATM    7  H   UNL     1       1.200  -2.380   0.964  1.00  0.00     0.317 HD
ENDROOT
BRANCH   1   8
HETATM    8  C   UNL     1      -0.895  -1.657  -0.805  1.00  0.00     0.163 C 
BRANCH   8   9
HETATM    9  N   UNL     1      -1.982  -1.660   0.148  1.00  0.00    -0.366 N 
HETATM   10  H   UNL     1      -1.777  -1.405   1.108  1.00  0.00     0.161 HD
BRANCH   9  11
HETATM   11  C   UNL     1      -3.188  -2.235  -0.152  1.00  0.00     0.348 C 
HETATM   12  O   UNL     1      -3.487  -2.740  -1.223  1.00  0.00    -0.284 OA
ENDBRANCH   9  11
ENDBRANCH   8   9
ENDBRANCH   1   8
TORSDOF 3
