REMARK  2 active torsions:
REMARK  status: ('A' for Active; 'I' for Inactive)
REMARK    1  A    between atoms: C_4  and  S_5 
REMARK    2  A    between atoms: S_5  and  C_6 
ROOT
HETATM    1  C   UNL     1       2.059   0.116  -0.186  1.00  0.00     0.071 C 
HETATM    2  C   UNL     1       0.735  -0.607  -0.131  1.00  0.00     0.052 A 
HETATM    3  C   UNL     1       0.777  -2.075   0.158  1.00  0.00     0.065 A 
HETATM    4  C   UNL     1      -0.408  -2.686   0.349  1.00  0.00     0.103 A 
HETATM    5  N   UNL     1      -1.572  -1.920   0.220  1.00  0.00    -0.129 N 
HETATM    6  C   UNL     1      -2.902  -2.193   0.394  1.00  0.00     0.258 A 
HETATM    7  N   UNL     1      -3.625  -1.120   0.176  1.00  0.00    -0.128 NA
HETATM    8  N   UNL     1      -2.763  -0.099  -0.137  1.00  0.00     0.045 NA
HETATM    9  C   UNL     1      -1.527  -0.564  -0.100  1.00  0.00     0.753 A 
HETATM   10  N   UNL     1      -0.350   0.096  -0.261  1.00  0.00    -0.066 NA
ENDROOT
BRANCH   4  11
HETATM   11  S   UNL     1      -0.404  -4.336   0.910  1.00  0.00    -0.042 SA
BRANCH  11  12
HETATM   12  C   UNL     1      -1.330  -5.236  -0.275  1.00  0.00     0.310 C 
HETATM   13  O   UNL     1      -2.200  -4.734  -0.972  1.00  0.00    -0.295 OA
ENDBRANCH  11  12
ENDBRANCH   4  11
TORSDOF 2
