REMARK  4 active torsions:
REMARK  status: ('A' for Active; 'I' for Inactive)
REMARK    1  A    between atoms: O_2  and  C_3 
REMARK    2  A    between atoms: C_4  and  O_5 
REMARK    3  A    between atoms: C_8  and  C_9 
REMARK    4  A    between atoms: C_9  and  N_10 
ROOT
HETATM    1  C   UNL     1       0.780  -0.914  -0.955  1.00  0.00     0.181 C 
HETATM    2  C   UNL     1      -0.274  -1.138  -0.170  1.00  0.00     0.141 C 
HETATM    3  C   UNL     1      -1.249  -0.116  -0.365  1.00  0.00     0.113 C 
HETATM    4  C   UNL     1      -2.340   0.094   0.380  1.00  0.00     0.035 C 
HETATM    5  O   UNL     1      -0.893   0.673  -1.443  1.00  0.00    -0.271 OA
HETATM    6  C   UNL     1       0.379   0.250  -1.779  1.00  0.00     0.325 C 
HETATM    7  O   UNL     1       1.054   0.759  -2.657  1.00  0.00    -0.257 OA
ENDROOT
BRANCH   2   8
HETATM    8  O   UNL     1      -0.468  -2.150   0.730  1.00  0.00    -0.350 OA
HETATM    9  C   UNL     1      -1.348  -3.152   0.204  1.00  0.00     0.210 C 
ENDBRANCH   2   8
BRANCH   4  10
HETATM   10  C   UNL     1      -3.473   1.030   0.063  1.00  0.00     0.176 C 
BRANCH  10  11
HETATM   11  N   UNL     1      -4.705   0.251   0.040  1.00  0.00    -0.280 N 
HETATM   12  N   UNL     1      -5.454   0.149   1.155  1.00  0.00     0.004 NA
HETATM   13  N   UNL     1      -6.128  -0.990   1.080  1.00  0.00    -0.164 NA
HETATM   14  C   UNL     1      -5.813  -1.597  -0.108  1.00  0.00     0.065 C 
HETATM   15  C   UNL     1      -4.984  -0.770  -0.831  1.00  0.00     0.136 C 
HETATM   16  C   UNL     1      -6.257  -2.969  -0.411  1.00  0.00     0.073 C 
ENDBRANCH  10  11
ENDBRANCH   4  10
BRANCH   1  17
HETATM   17  O   UNL     1       1.982  -1.537  -1.103  1.00  0.00    -0.348 OA
HETATM   18  C   UNL     1       2.292  -2.533  -0.133  1.00  0.00     0.210 C 
ENDBRANCH   1  17
TORSDOF 4
