REMARK  4 active torsions:
REMARK  status: ('A' for Active; 'I' for Inactive)
REMARK    1  A    between atoms: S_2  and  C_3 
REMARK    2  A    between atoms: C_3  and  N_5 
REMARK    3  A    between atoms: N_5  and  C_6 
REMARK    4  A    between atoms: C_8  and  C_9 
ROOT
HETATM    1  C   UNL     1       0.266  -0.734   0.207  1.00  0.00     0.172 A 
HETATM    2  N   UNL     1      -1.027  -0.517   0.278  1.00  0.00    -0.223 NA
HETATM    3  C   UNL     1      -1.304   0.830   0.088  1.00  0.00     0.076 A 
HETATM    4  C   UNL     1      -0.182   1.617  -0.084  1.00  0.00     0.085 A 
HETATM    5  S   UNL     1       1.226   0.641  -0.050  1.00  0.00    -0.061 SA
ENDROOT
BRANCH   3   6
HETATM    6  C   UNL     1      -2.686   1.316   0.068  1.00  0.00    -0.007 A 
HETATM    7  C   UNL     1      -3.004   2.684   0.047  1.00  0.00     0.017 A 
HETATM    8  C   UNL     1      -4.339   3.106   0.023  1.00  0.00     0.043 A 
HETATM    9  C   UNL     1      -5.359   2.163   0.020  1.00  0.00     0.116 A 
HETATM   10  C   UNL     1      -5.073   0.807   0.042  1.00  0.00     0.043 A 
HETATM   11  F   UNL     1      -6.633   2.571  -0.003  1.00  0.00    -0.206 F 
HETATM   12  C   UNL     1      -3.741   0.384   0.068  1.00  0.00     0.017 A 
ENDBRANCH   3   6
BRANCH   1  13
HETATM   13  N   UNL     1       0.753  -1.999   0.402  1.00  0.00    -0.320 N 
HETATM   14  H   UNL     1       0.026  -2.622   0.718  1.00  0.00     0.169 HD
BRANCH  13  15
HETATM   15  C   UNL     1       1.994  -2.556   0.239  1.00  0.00     0.140 C 
HETATM   16  S   UNL     1       3.418  -1.926  -0.356  1.00  0.00    -0.053 SA
BRANCH  15  17
HETATM   17  S   UNL     1       1.964  -4.236   0.797  1.00  0.00    -0.105 SA
HETATM   18  C   UNL     1       0.632  -4.936  -0.204  1.00  0.00     0.098 C 
ENDBRANCH  15  17
ENDBRANCH  13  15
ENDBRANCH   1  13
TORSDOF 4
