REMARK  5 active torsions:
REMARK  status: ('A' for Active; 'I' for Inactive)
REMARK    1  A    between atoms: C_2  and  O_3 
REMARK    2  A    between atoms: O_3  and  C_4 
REMARK    3  A    between atoms: C_4  and  C_5 
REMARK    4  A    between atoms: C_4  and  C_7 
REMARK    5  A    between atoms: C_7  and  S_8 
ROOT
HETATM    1  C   UNL     1       0.889   1.437   0.234  1.00  0.00     0.173 C 
ENDROOT
BRANCH   1   2
HETATM    2  O   UNL     1       1.994   1.846  -0.606  1.00  0.00    -0.318 OA
BRANCH   2   3
HETATM    3  C   UNL     1       3.232   1.579  -0.122  1.00  0.00     0.398 C 
HETATM    4  O   UNL     1       3.486   1.034   0.937  1.00  0.00    -0.276 OA
ENDBRANCH   2   3
ENDBRANCH   1   2
BRANCH   1   5
HETATM    5  C   UNL     1      -0.225   2.393  -0.170  1.00  0.00     0.087 C 
HETATM    6  S   UNL     1      -1.294   2.157  -1.441  1.00  0.00    -0.095 SA
ENDBRANCH   1   5
BRANCH   1   7
HETATM    7  C   UNL     1       0.618  -0.063   0.071  1.00  0.00     0.108 C 
BRANCH   7   8
HETATM    8  S   UNL     1      -0.753  -0.662   1.109  1.00  0.00    -0.179 SA
HETATM    9  H   UNL     1      -1.745  -0.177   0.344  1.00  0.00     0.101 HD
ENDBRANCH   7   8
ENDBRANCH   1   7
TORSDOF 5
