REMARK  2 active torsions:
REMARK  status: ('A' for Active; 'I' for Inactive)
REMARK    1  A    between atoms: S_2  and  C_3 
REMARK    2  A    between atoms: C_3  and  N_6 
ROOT
HETATM    1  C   UNL     1       1.447   0.073   0.497  1.00  0.00     0.215 C 
HETATM    2  C   UNL     1       1.216  -1.129  -0.419  1.00  0.00     0.076 C 
HETATM    3 CL   UNL     1       1.336  -0.467   2.216  1.00  0.00    -0.077 Cl
ENDROOT
BRANCH   1   4
HETATM    4  S   UNL     1       3.073   0.982   0.328  1.00  0.00    -0.121 SA
HETATM    5  C   UNL     1       4.193  -0.241  -0.389  1.00  0.00     0.093 C 
ENDBRANCH   1   4
BRANCH   1   6
HETATM    6  N   UNL     1       0.236   1.021   0.237  1.00  0.00    -0.119 N 
HETATM    7  O   UNL     1       0.327   1.800  -0.724  1.00  0.00    -0.534 OA
HETATM    8  O   UNL     1      -0.792   0.891   0.922  1.00  0.00    -0.534 OA
ENDBRANCH   1   6
TORSDOF 2
