REMARK  3 active torsions:
REMARK  status: ('A' for Active; 'I' for Inactive)
REMARK    1  A    between atoms: C_5  and  C_6 
REMARK    2  A    between atoms: C_6  and  O_7 
REMARK    3  A    between atoms: C_15  and  O_16 
ROOT
HETATM    1  C   UNL     1       2.633  -0.685  -0.215  1.00  0.00     0.051 C 
HETATM    2  C   UNL     1       1.154  -0.912  -0.095  1.00  0.00    -0.029 A 
HETATM    3  C   UNL     1       0.674  -2.203   0.146  1.00  0.00     0.010 A 
HETATM    4  C   UNL     1      -0.697  -2.442   0.316  1.00  0.00     0.011 A 
HETATM    5  C   UNL     1      -1.636  -1.397   0.259  1.00  0.00    -0.014 A 
HETATM    6  C   UNL     1      -1.141  -0.113  -0.042  1.00  0.00     0.047 A 
HETATM    7  C   UNL     1       0.222   0.121  -0.208  1.00  0.00     0.072 A 
ENDROOT
BRANCH   5   8
HETATM    8  C   UNL     1      -3.117  -1.678   0.509  1.00  0.00     0.149 C 
HETATM    9  C   UNL     1      -3.895  -0.450   1.022  1.00  0.00     0.189 C 
HETATM   10  C   UNL     1      -4.747   0.284  -0.007  1.00  0.00     0.249 C 
HETATM   11  O   UNL     1      -3.868  -0.091   2.202  1.00  0.00    -0.292 OA
HETATM   12  O   UNL     1      -5.399  -0.512  -0.984  1.00  0.00    -0.384 OA
HETATM   13  C   UNL     1      -5.271  -1.913  -0.764  1.00  0.00     0.172 C 
HETATM   14  C   UNL     1      -3.795  -2.283  -0.729  1.00  0.00     0.077 C 
BRANCH   8  15
HETATM   15  O   UNL     1      -3.188  -2.688   1.540  1.00  0.00    -0.377 OA
HETATM   16  H   UNL     1      -3.968  -2.503   2.092  1.00  0.00     0.211 HD
ENDBRANCH   8  15
ENDBRANCH   5   8
BRANCH   7  17
HETATM   17  O   UNL     1       0.575   1.415  -0.470  1.00  0.00    -0.360 OA
HETATM   18  H   UNL     1       1.541   1.475  -0.536  1.00  0.00     0.217 HD
ENDBRANCH   7  17
TORSDOF 3
