REMARK  3 active torsions:
REMARK  status: ('A' for Active; 'I' for Inactive)
REMARK    1  A    between atoms: C_2  and  N_3 
REMARK    2  A    between atoms: C_5  and  O_6 
REMARK    3  A    between atoms: C_5  and  C_7 
ROOT
HETATM    1  N   UNL     1      -0.178  -1.035  -0.346  1.00  0.00    -0.353 N 
HETATM    2  C   UNL     1      -0.250   0.161   0.472  1.00  0.00     0.167 A 
HETATM    3  C   UNL     1       1.287   0.272   0.339  1.00  0.00     0.116 A 
HETATM    4  C   UNL     1       1.263  -1.053  -0.463  1.00  0.00     0.167 A 
ENDROOT
BRANCH   3   5
HETATM    5  O   UNL     1       2.019   0.216   1.596  1.00  0.00    -0.384 OA
HETATM    6  H   UNL     1       2.959   0.142   1.358  1.00  0.00     0.210 HD
ENDBRANCH   3   5
BRANCH   3   7
HETATM    7  C   UNL     1       1.720   1.477  -0.491  1.00  0.00     0.263 C 
HETATM    8  F   UNL     1       1.302   2.614   0.130  1.00  0.00    -0.252 F 
ENDBRANCH   3   7
BRANCH   1   9
HETATM    9  C   UNL     1      -1.067  -2.067  -0.395  1.00  0.00     0.350 C 
HETATM   10  O   UNL     1      -2.223  -2.026  -0.001  1.00  0.00    -0.284 OA
ENDBRANCH   1   9
TORSDOF 3
