REMARK  4 active torsions:
REMARK  status: ('A' for Active; 'I' for Inactive)
REMARK       I    between atoms: C_2  and  N_3 
REMARK    1  A    between atoms: C_2  and  O_13 
REMARK    2  A    between atoms: N_3  and  C_4 
REMARK    3  A    between atoms: C_4  and  C_5 
REMARK    4  A    between atoms: O_13  and  C_14 
ROOT
HETATM    1  O   UNL     1      -0.257  -3.770   0.785  1.00  0.00    -0.238 OA
HETATM    2  C   UNL     1       0.531  -2.958   0.301  1.00  0.00     0.366 C 
HETATM    3  N   UNL     1       1.871  -3.168   0.531  1.00  0.00    -0.332 N 
HETATM    4  H   UNL     1       2.004  -4.035   1.030  1.00  0.00     0.165 HD
ENDROOT
BRANCH   3   5
HETATM    5  C   UNL     1       2.979  -2.684  -0.257  1.00  0.00     0.163 C 
BRANCH   5   6
HETATM    6  C   UNL     1       3.573  -1.340   0.097  1.00  0.00    -0.037 A 
HETATM    7  C   UNL     1       4.940  -1.109  -0.136  1.00  0.00     0.054 A 
HETATM    8  C   UNL     1       5.470   0.180  -0.037  1.00  0.00     0.155 A 
HETATM    9  C   UNL     1       4.654   1.257   0.279  1.00  0.00     0.154 A 
HETATM   10  F   UNL     1       6.773   0.371  -0.285  1.00  0.00    -0.203 F 
HETATM   11  C   UNL     1       3.312   1.049   0.546  1.00  0.00     0.046 A 
HETATM   12  F   UNL     1       5.157   2.499   0.312  1.00  0.00    -0.203 F 
HETATM   13  C   UNL     1       2.786  -0.248   0.482  1.00  0.00     0.012 A 
ENDBRANCH   5   6
ENDBRANCH   3   5
BRANCH   2  14
HETATM   14  O   UNL     1       0.231  -1.846  -0.429  1.00  0.00    -0.255 OA
BRANCH  14  15
HETATM   15  C   UNL     1      -1.090  -1.298  -0.428  1.00  0.00     0.152 C 
HETATM   16  C   UNL     1      -1.211   0.173  -0.512  1.00  0.00     0.205 C 
HETATM   17  C   UNL     1      -2.441   0.674  -0.322  1.00  0.00     0.057 C 
HETATM   18  O   UNL     1      -0.139   0.786  -0.749  1.00  0.00    -0.286 OA
HETATM   19  C   UNL     1      -3.655  -0.162  -0.090  1.00  0.00     0.206 C 
HETATM   20  O   UNL     1      -3.500  -1.577  -0.274  1.00  0.00    -0.356 OA
HETATM   21  C   UNL     1      -2.209  -2.036  -0.350  1.00  0.00     0.176 C 
ENDBRANCH  14  15
ENDBRANCH   2  14
TORSDOF 4
