REMARK  3 active torsions:
REMARK  status: ('A' for Active; 'I' for Inactive)
REMARK    1  A    between atoms: N_4  and  C_5 
REMARK    2  A    between atoms: C_8  and  N_9 
REMARK       I    between atoms: N_9  and  C_10 
REMARK    3  A    between atoms: C_10  and  C_12 
ROOT
HETATM    1  C   UNL     1      -2.902  -2.085  -0.173  1.00  0.00     0.054 A 
HETATM    2  C   UNL     1      -2.895  -3.482  -0.211  1.00  0.00     0.033 A 
HETATM    3  C   UNL     1      -4.094  -4.204  -0.165  1.00  0.00     0.032 A 
HETATM    4  C   UNL     1      -5.320  -3.551  -0.085  1.00  0.00     0.035 A 
HETATM    5  C   UNL     1      -5.321  -2.147  -0.080  1.00  0.00     0.032 A 
HETATM    6  C   UNL     1      -4.126  -1.415  -0.116  1.00  0.00     0.033 A 
ENDROOT
BRANCH   4   7
HETATM    7  N   UNL     1      -6.575  -4.179  -0.026  1.00  0.00    -0.320 N 
HETATM    8  C   UNL     1      -6.989  -5.479   0.128  1.00  0.00     0.330 C 
HETATM    9  O   UNL     1      -8.218  -5.656   0.059  1.00  0.00    -0.263 OA
HETATM   10  H   UNL     1      -7.381  -3.565  -0.100  1.00  0.00     0.169 HD
BRANCH   8  11
HETATM   11  C   UNL     1      -6.029  -6.649   0.389  1.00  0.00     0.472 C 
HETATM   12  F   UNL     1      -5.273  -6.960  -0.703  1.00  0.00    -0.162 F 
HETATM   13  F   UNL     1      -5.160  -6.406   1.412  1.00  0.00    -0.162 F 
HETATM   14  F   UNL     1      -6.677  -7.801   0.726  1.00  0.00    -0.162 F 
ENDBRANCH   8  11
ENDBRANCH   4   7
BRANCH   1  15
HETATM   15  N   UNL     1      -1.682  -1.363  -0.144  1.00  0.00    -0.247 N 
HETATM   16  C   UNL     1      -0.401  -1.859  -0.192  1.00  0.00     0.142 A 
HETATM   17  C   UNL     1       0.405  -0.782   0.093  1.00  0.00     0.065 A 
HETATM   18  C   UNL     1       1.864  -0.752   0.305  1.00  0.00     0.073 C 
HETATM   19  N   UNL     1      -0.369   0.337   0.195  1.00  0.00    -0.163 NA
HETATM   20  N   UNL     1      -1.637  -0.018   0.018  1.00  0.00     0.009 NA
ENDBRANCH   1  15
TORSDOF 3
