REMARK  1 active torsions:
REMARK  status: ('A' for Active; 'I' for Inactive)
REMARK    1  A    between atoms: N_3  and  C_4 
ROOT
HETATM    1  N   UNL     1       4.241  -0.922   0.000  1.00  0.00     0.068 N 
HETATM    2  N   UNL     1       3.277  -0.304  -0.000  1.00  0.00    -0.162 NA
HETATM    3  N   UNL     1       2.244   0.371   0.000  1.00  0.00    -0.069 NA
ENDROOT
BRANCH   3   4
HETATM    4  C   UNL     1       1.052  -0.340  -0.000  1.00  0.00     0.143 A 
HETATM    5  C   UNL     1      -0.214   0.437   0.000  1.00  0.00     0.224 A 
HETATM    6  C   UNL     1      -1.361  -0.268   0.000  1.00  0.00     0.192 A 
HETATM    7  O   UNL     1      -0.072   1.691  -0.000  1.00  0.00    -0.284 OA
HETATM    8  O   UNL     1      -1.510  -1.623  -0.000  1.00  0.00    -0.355 OA
HETATM    9  C   UNL     1      -0.351  -2.388   0.000  1.00  0.00     0.204 A 
HETATM   10  C   UNL     1       0.946  -1.685   0.000  1.00  0.00     0.038 A 
ENDBRANCH   3   4
TORSDOF 1
