REMARK  5 active torsions:
REMARK  status: ('A' for Active; 'I' for Inactive)
REMARK    1  A    between atoms: C_2  and  C_3 
REMARK    2  A    between atoms: C_2  and  O_7 
REMARK    3  A    between atoms: C_3  and  S_4 
REMARK    4  A    between atoms: S_4  and  C_5 
REMARK    5  A    between atoms: O_7  and  C_8 
ROOT
HETATM    1  C   UNL     1       0.597  -0.709   0.872  1.00  0.00     0.159 A 
HETATM    2  C   UNL     1       0.806   0.791   0.417  1.00  0.00     0.076 A 
HETATM    3  C   UNL     1       2.262   0.464   0.310  1.00  0.00    -0.047 A 
HETATM    4  C   UNL     1       3.494   0.979  -0.022  1.00  0.00     0.008 A 
HETATM    5  C   UNL     1       4.582   0.108   0.022  1.00  0.00     0.001 A 
HETATM    6  C   UNL     1       4.406  -1.241   0.388  1.00  0.00     0.001 A 
HETATM    7  C   UNL     1       3.139  -1.734   0.722  1.00  0.00     0.010 A 
HETATM    8  C   UNL     1       2.087  -0.848   0.672  1.00  0.00    -0.023 A 
ENDROOT
BRANCH   1   9
HETATM    9  O   UNL     1      -0.205  -1.566   0.007  1.00  0.00    -0.375 OA
BRANCH   9  10
HETATM   10  C   UNL     1      -1.673  -1.448   0.000  1.00  0.00     0.128 C 
HETATM   11  C   UNL     1      -1.932  -0.482   0.000  1.00  0.00     0.040 C 
BRANCH  10  12
HETATM   12  C   UNL     1      -2.219  -2.353   1.159  1.00  0.00     0.113 C 
BRANCH  12  13
HETATM   13  S   UNL     1      -1.258  -3.833   1.645  1.00  0.00    -0.099 SA
BRANCH  13  14
HETATM   14  C   UNL     1      -0.905  -4.534   0.075  1.00  0.00     0.304 C 
HETATM   15  O   UNL     1      -1.189  -5.698  -0.179  1.00  0.00    -0.295 OA
ENDBRANCH  13  14
ENDBRANCH  12  13
ENDBRANCH  10  12
ENDBRANCH   9  10
ENDBRANCH   1   9
TORSDOF 5
