REMARK  2 active torsions:
REMARK  status: ('A' for Active; 'I' for Inactive)
REMARK    1  A    between atoms: C_7  and  O_8 
REMARK    2  A    between atoms: O_8  and  C_9 
ROOT
HETATM    1  O   UNL     1       0.701   1.664  -0.025  1.00  0.00    -0.330 OA
ENDROOT
BRANCH   1   2
HETATM    2  C   UNL     1       1.940   0.979  -0.140  1.00  0.00     0.222 C 
HETATM    3  C   UNL     1       3.093   1.894   0.278  1.00  0.00     0.160 C 
HETATM    4  O   UNL     1       2.973   3.066   0.641  1.00  0.00    -0.295 OA
HETATM    5  C   UNL     1       4.474   1.292   0.121  1.00  0.00     0.107 C 
HETATM    6  C   UNL     1       4.388  -0.220   0.244  1.00  0.00     0.175 C 
HETATM    7  O   UNL     1       3.409  -0.548   1.222  1.00  0.00    -0.388 OA
HETATM    8  C   UNL     1       2.073  -0.296   0.722  1.00  0.00     0.207 C 
ENDBRANCH   1   2
BRANCH   1   9
HETATM    9  C   UNL     1      -0.505   1.016  -0.279  1.00  0.00     0.141 C 
HETATM   10  C   UNL     1      -0.655  -0.238  -1.049  1.00  0.00     0.205 C 
HETATM   11  C   UNL     1      -1.799  -0.908  -0.821  1.00  0.00     0.057 C 
HETATM   12  O   UNL     1       0.265  -0.521  -1.858  1.00  0.00    -0.286 OA
HETATM   13  C   UNL     1      -2.889  -0.381   0.054  1.00  0.00     0.206 C 
HETATM   14  O   UNL     1      -2.872   1.044   0.256  1.00  0.00    -0.356 OA
HETATM   15  C   UNL     1      -1.609   1.582   0.248  1.00  0.00     0.176 C 
ENDBRANCH   1   9
TORSDOF 2
