REMARK  5 active torsions:
REMARK  status: ('A' for Active; 'I' for Inactive)
REMARK    1  A    between atoms: C_2  and  O_3 
REMARK    2  A    between atoms: O_3  and  C_4 
REMARK    3  A    between atoms: C_4  and  C_6 
REMARK    4  A    between atoms: C_9  and  N_10 
REMARK       I    between atoms: N_10  and  C_11 
REMARK    5  A    between atoms: C_11  and  S_13 
ROOT
HETATM    1  C   UNL     1       0.140  -1.843  -1.526  1.00  0.00     0.039 C 
HETATM    2  C   UNL     1      -0.522  -0.954  -2.380  1.00  0.00     0.020 C 
HETATM    3  C   UNL     1      -0.416   0.400  -2.085  1.00  0.00     0.030 C 
HETATM    4  C   UNL     1       0.388   0.823  -1.019  1.00  0.00     0.035 C 
HETATM    5  C   UNL     1       1.292  -0.059  -0.419  1.00  0.00     0.030 C 
HETATM    6  C   UNL     1       1.180  -1.419  -0.694  1.00  0.00     0.020 C 
ENDROOT
BRANCH   4   7
HETATM    7  N   UNL     1       0.094   2.088  -0.499  1.00  0.00    -0.318 N 
HETATM    8  C   UNL     1       0.713   2.763   0.499  1.00  0.00     0.283 C 
HETATM    9  O   UNL     1       1.724   2.489   1.130  1.00  0.00    -0.260 OA
HETATM   10  H   UNL     1      -0.752   2.541  -0.824  1.00  0.00     0.169 HD
BRANCH   8  11
HETATM   11  S   UNL     1      -0.165   4.263   0.733  1.00  0.00    -0.073 SA
HETATM   12  C   UNL     1       1.198   5.377   0.349  1.00  0.00     0.100 C 
ENDBRANCH   8  11
ENDBRANCH   4   7
BRANCH   1  13
HETATM   13  C   UNL     1      -0.774  -2.823  -0.898  1.00  0.00     0.293 C 
HETATM   14  O   UNL     1      -1.005  -3.951  -1.277  1.00  0.00    -0.259 OA
BRANCH  13  15
HETATM   15  O   UNL     1      -1.311  -2.184   0.191  1.00  0.00    -0.318 OA
BRANCH  15  16
HETATM   16  C   UNL     1      -2.598  -1.500   0.000  1.00  0.00     0.174 C 
HETATM   17  C   UNL     1      -2.598  -0.500   0.000  1.00  0.00     0.034 C 
ENDBRANCH  15  16
ENDBRANCH  13  15
ENDBRANCH   1  13
TORSDOF 5
