REMARK  4 active torsions:
REMARK  status: ('A' for Active; 'I' for Inactive)
REMARK    1  A    between atoms: C_2  and  S_3 
REMARK    2  A    between atoms: S_3  and  C_4 
REMARK    3  A    between atoms: C_7  and  O_8 
REMARK    4  A    between atoms: O_8  and  C_9 
ROOT
HETATM    1  C   UNL     1       5.842  -0.066   0.064  1.00  0.00     0.007 A 
HETATM    2  C   UNL     1       5.292  -1.319  -0.231  1.00  0.00     0.021 A 
HETATM    3  C   UNL     1       3.908  -1.519  -0.165  1.00  0.00     0.038 A 
HETATM    4  C   UNL     1       3.056  -0.463   0.163  1.00  0.00     0.069 A 
HETATM    5  C   UNL     1       3.595   0.781   0.496  1.00  0.00     0.038 A 
HETATM    6  C   UNL     1       4.980   0.975   0.440  1.00  0.00     0.021 A 
ENDROOT
BRANCH   4   7
HETATM    7  O   UNL     1       1.707  -0.707   0.000  1.00  0.00    -0.345 OA
BRANCH   7   8
HETATM    8  C   UNL     1       1.000   0.000   0.000  1.00  0.00     0.142 C 
HETATM    9  C   UNL     1       1.072   0.550  -1.572  1.00  0.00     0.111 C 
HETATM   10  C   UNL     1      -0.287  -0.129  -1.835  1.00  0.00     0.131 C 
HETATM   11  C   UNL     1      -0.288  -0.892  -0.490  1.00  0.00     0.111 C 
HETATM   12  O   UNL     1      -1.090  -0.034  -2.742  1.00  0.00    -0.298 OA
ENDBRANCH   7   8
ENDBRANCH   4   7
BRANCH   1  13
HETATM   13  S   UNL     1       7.568   0.326  -0.151  1.00  0.00    -0.062 SA
BRANCH  13  14
HETATM   14  C   UNL     1       8.419  -1.116   0.363  1.00  0.00     0.309 C 
HETATM   15  O   UNL     1       9.635  -1.209   0.267  1.00  0.00    -0.295 OA
ENDBRANCH  13  14
ENDBRANCH   1  13
TORSDOF 4
