REMARK  2 active torsions:
REMARK  status: ('A' for Active; 'I' for Inactive)
REMARK    1  A    between atoms: S_2  and  C_3 
REMARK    2  A    between atoms: C_3  and  C_4 
ROOT
HETATM    1  C   UNL     1       0.741  -0.753   1.276  1.00  0.00     0.156 A 
HETATM    2  N   UNL     1       0.292  -2.047   1.443  1.00  0.00    -0.225 NA
HETATM    3  C   UNL     1      -0.934  -1.998   0.986  1.00  0.00     0.230 A 
HETATM    4  N   UNL     1      -1.217  -0.734   0.578  1.00  0.00    -0.266 N 
HETATM    5  C   UNL     1      -2.441  -0.264  -0.013  1.00  0.00     0.181 C 
HETATM    6  N   UNL     1      -0.171   0.086   0.766  1.00  0.00    -0.156 NA
ENDROOT
BRANCH   1   7
HETATM    7  C   UNL     1       2.126  -0.344   1.640  1.00  0.00     0.155 C 
BRANCH   7   8
HETATM    8  S   UNL     1       3.315  -0.460   0.256  1.00  0.00    -0.166 SA
HETATM    9  C   UNL     1       3.048  -2.182  -0.243  1.00  0.00     0.090 C 
ENDBRANCH   7   8
ENDBRANCH   1   7
TORSDOF 2
