REMARK  1 active torsions:
REMARK  status: ('A' for Active; 'I' for Inactive)
REMARK    1  A    between atoms: C_13  and  N_14 
ROOT
HETATM    1  C   UNL     1      -3.464   1.000   0.000  1.00  0.00     0.084 C 
HETATM    2  S   UNL     1      -3.464   0.000   0.000  1.00  0.00    -0.157 SA
HETATM    3  C   UNL     1      -3.159  -1.435   0.000  1.00  0.00     0.252 A 
HETATM    4  O   UNL     1      -3.694  -2.500  -0.000  1.00  0.00    -0.277 OA
HETATM    5  N   UNL     1      -1.992  -0.487   0.000  1.00  0.00     0.000 N 
HETATM    6  C   UNL     1      -0.711  -0.421  -0.000  1.00  0.00     0.039 A 
HETATM    7  C   UNL     1      -1.075  -1.633   0.000  1.00  0.00     0.013 A 
HETATM    8  C   UNL     1       0.000  -2.000   0.000  1.00  0.00    -0.001 A 
HETATM    9  C   UNL     1       0.000  -3.000   0.000  1.00  0.00     0.031 A 
HETATM   10  C   UNL     1       1.499  -1.354  -0.000  1.00  0.00    -0.072 A 
HETATM   11  C   UNL     1       2.842  -2.048  -0.000  1.00  0.00     0.044 C 
HETATM   12  C   UNL     1       1.607  -0.009   0.000  1.00  0.00     0.036 A 
HETATM   13  C   UNL     1       0.385   0.540  -0.000  1.00  0.00     0.092 A 
HETATM   14  H   UNL     1      -1.894   0.475   0.000  1.00  0.00     0.098 HD
ENDROOT
BRANCH  13  15
HETATM   15  N   UNL     1       0.335   1.992  -0.000  1.00  0.00    -0.119 N 
HETATM   16  O   UNL     1      -0.763   2.546   0.000  1.00  0.00    -0.532 OA
HETATM   17  O   UNL     1       1.404   2.613  -0.000  1.00  0.00    -0.532 OA
ENDBRANCH  13  15
TORSDOF 1
