REMARK  5 active torsions:
REMARK  status: ('A' for Active; 'I' for Inactive)
REMARK    1  A    between atoms: S_2  and  C_3 
REMARK    2  A    between atoms: C_3  and  N_5 
REMARK    3  A    between atoms: N_5  and  C_6 
REMARK    4  A    between atoms: C_6  and  C_8 
REMARK    5  A    between atoms: C_8  and  C_9 
ROOT
HETATM    1  C   UNL     1       0.970   1.023  -0.211  1.00  0.00     0.061 C 
HETATM    2  C   UNL     1      -0.383   1.729  -0.118  1.00  0.00     0.027 C 
ENDROOT
BRANCH   1   3
HETATM    3  N   UNL     1       1.931   1.738  -1.091  1.00  0.00    -0.274 NA
HETATM    4  H   UNL     1       2.818   1.262  -1.032  1.00  0.00     0.129 HD
BRANCH   3   5
HETATM    5  C   UNL     1       2.112   3.099  -1.021  1.00  0.00     0.114 C 
HETATM    6  S   UNL     1       1.398   4.135  -2.119  1.00  0.00    -0.059 SA
BRANCH   5   7
HETATM    7  S   UNL     1       3.176   3.661   0.246  1.00  0.00    -0.111 SA
HETATM    8  C   UNL     1       4.474   2.418   0.298  1.00  0.00     0.097 C 
ENDBRANCH   5   7
ENDBRANCH   3   5
ENDBRANCH   1   3
BRANCH   1   9
HETATM    9  C   UNL     1       0.908  -0.444  -0.712  1.00  0.00     0.058 C 
BRANCH   9  10
HETATM   10  C   UNL     1      -0.210  -1.345  -0.262  1.00  0.00    -0.057 A 
HETATM   11  C   UNL     1      -1.491  -1.210  -0.826  1.00  0.00     0.007 A 
HETATM   12  C   UNL     1      -2.515  -2.095  -0.497  1.00  0.00     0.001 A 
HETATM   13  C   UNL     1      -2.270  -3.146   0.380  1.00  0.00     0.000 A 
HETATM   14  C   UNL     1      -1.004  -3.300   0.943  1.00  0.00     0.001 A 
HETATM   15  C   UNL     1       0.021  -2.402   0.632  1.00  0.00     0.007 A 
ENDBRANCH   9  10
ENDBRANCH   1   9
TORSDOF 5
