REMARK  7 active torsions:
REMARK  status: ('A' for Active; 'I' for Inactive)
REMARK    1  A    between atoms: O_2  and  C_3 
REMARK    2  A    between atoms: C_6  and  C_7 
REMARK    3  A    between atoms: N_9  and  C_10 
REMARK    4  A    between atoms: C_10  and  C_11 
REMARK    5  A    between atoms: C_11  and  O_12 
REMARK    6  A    between atoms: C_11  and  C_13 
REMARK    7  A    between atoms: C_13  and  S_14 
ROOT
HETATM    1  C   UNL     1      -2.072  -3.211   1.089  1.00  0.00     0.102 C 
HETATM    2  C   UNL     1      -1.873  -4.560   1.264  1.00  0.00     0.142 C 
HETATM    3  N   UNL     1      -3.060  -5.060   0.859  1.00  0.00    -0.280 N 
HETATM    4  N   UNL     1      -4.014  -4.126   0.892  1.00  0.00     0.005 NA
HETATM    5  N   UNL     1      -3.399  -2.952   0.949  1.00  0.00    -0.158 NA
ENDROOT
BRANCH   1   6
HETATM    6  C   UNL     1      -0.993  -2.279   1.036  1.00  0.00     0.002 C 
HETATM    7  C   UNL     1       0.282  -2.817   0.758  1.00  0.00     0.017 C 
HETATM    8  C   UNL     1       1.383  -2.022   0.795  1.00  0.00     0.037 C 
HETATM    9  C   UNL     1       1.129  -0.679   1.004  1.00  0.00     0.068 C 
HETATM   10  C   UNL     1      -0.048  -0.148   1.508  1.00  0.00     0.044 C 
HETATM   11  C   UNL     1      -1.171  -0.902   1.257  1.00  0.00    -0.047 C 
HETATM   12  C   UNL     1      -2.435  -0.139   0.976  1.00  0.00     0.049 C 
BRANCH   9  13
HETATM   13  O   UNL     1       1.732   0.000   0.000  1.00  0.00    -0.356 OA
HETATM   14  C   UNL     1       1.732   1.000   0.000  1.00  0.00     0.210 C 
ENDBRANCH   9  13
ENDBRANCH   1   6
BRANCH   3  15
HETATM   15  C   UNL     1      -3.180  -6.216  -0.006  1.00  0.00     0.178 C 
BRANCH  15  16
HETATM   16  C   UNL     1      -3.423  -5.823  -1.478  1.00  0.00     0.146 C 
BRANCH  16  17
HETATM   17  O   UNL     1      -2.888  -4.540  -1.836  1.00  0.00    -0.393 OA
HETATM   18  H   UNL     1      -3.409  -3.863  -1.350  1.00  0.00     0.210 HD
ENDBRANCH  16  17
BRANCH  16  19
HETATM   19  C   UNL     1      -4.868  -5.963  -1.989  1.00  0.00     0.107 C 
BRANCH  19  20
HETATM   20  S   UNL     1      -6.231  -5.137  -1.102  1.00  0.00    -0.171 SA
HETATM   21  C   UNL     1      -6.597  -6.370   0.175  1.00  0.00     0.089 C 
ENDBRANCH  19  20
ENDBRANCH  16  19
ENDBRANCH  15  16
ENDBRANCH   3  15
TORSDOF 7
