REMARK  7 active torsions:
REMARK  status: ('A' for Active; 'I' for Inactive)
REMARK    1  A    between atoms: C_2  and  O_3 
REMARK    2  A    between atoms: O_3  and  C_4 
REMARK    3  A    between atoms: C_4  and  C_5 
REMARK    4  A    between atoms: C_5  and  C_6 
REMARK    5  A    between atoms: C_5  and  O_8 
REMARK    6  A    between atoms: C_6  and  N_7 
REMARK    7  A    between atoms: O_8  and  C_9 
ROOT
HETATM    1  C   UNL     1       1.970   1.077  -0.490  1.00  0.00     0.182 C 
ENDROOT
BRANCH   1   2
HETATM    2  C   UNL     1       2.724   0.036   0.353  1.00  0.00     0.201 C 
BRANCH   2   3
HETATM    3  O   UNL     1       4.030   0.495   0.737  1.00  0.00    -0.389 OA
BRANCH   3   4
HETATM    4  C   UNL     1       5.196   0.000   0.000  1.00  0.00     0.163 C 
HETATM    5  C   UNL     1       5.196  -1.000   0.000  1.00  0.00     0.033 C 
ENDBRANCH   3   4
ENDBRANCH   2   3
ENDBRANCH   1   2
BRANCH   1   6
HETATM    6  C   UNL     1       2.042   2.502   0.111  1.00  0.00     0.301 C 
BRANCH   6   7
HETATM    7  N   UNL     1       0.765   3.194   0.269  1.00  0.00     0.080 N 
HETATM    8  H   UNL     1       0.938   4.199   0.299  1.00  0.00     0.312 HD
HETATM    9  H   UNL     1       0.181   3.030  -0.551  1.00  0.00     0.312 HD
ENDBRANCH   6   7
ENDBRANCH   1   6
BRANCH   1  10
HETATM   10  O   UNL     1       0.640   0.612  -0.838  1.00  0.00    -0.319 OA
BRANCH  10  11
HETATM   11  C   UNL     1      -0.176   0.252   0.172  1.00  0.00     0.398 C 
HETATM   12  O   UNL     1      -0.636  -0.881   0.309  1.00  0.00    -0.276 OA
ENDBRANCH  10  11
ENDBRANCH   1  10
TORSDOF 7
