REMARK  4 active torsions:
REMARK  status: ('A' for Active; 'I' for Inactive)
REMARK    1  A    between atoms: C_2  and  C_3 
REMARK    2  A    between atoms: C_3  and  N_4 
REMARK    3  A    between atoms: C_3  and  C_9 
REMARK       I    between atoms: N_4  and  C_5 
REMARK    4  A    between atoms: C_5  and  S_7 
ROOT
HETATM    1  C   UNL     1       1.743  -0.575   1.454  1.00  0.00     0.118 C 
ENDROOT
BRANCH   1   2
HETATM    2  C   UNL     1       2.598  -0.500   0.000  1.00  0.00     0.025 C 
HETATM    3  C   UNL     1       2.598  -1.500   0.000  1.00  0.00     0.007 C 
ENDBRANCH   1   2
BRANCH   1   4
HETATM    4  N   UNL     1       1.548   0.759   1.984  1.00  0.00    -0.345 N 
HETATM    5  C   UNL     1       0.995   1.716   1.194  1.00  0.00     0.249 C 
HETATM    6  O   UNL     1       1.211   2.914   1.304  1.00  0.00    -0.263 OA
HETATM    7  H   UNL     1       2.314   1.164   2.516  1.00  0.00     0.163 HD
BRANCH   5   8
HETATM    8  S   UNL     1       0.000   1.000   0.000  1.00  0.00    -0.213 SA
HETATM    9  C   UNL     1      -0.866   1.500   0.000  1.00  0.00     0.275 C 
ENDBRANCH   5   8
ENDBRANCH   1   4
BRANCH   1  10
HETATM   10  C   UNL     1       0.485  -1.659   1.469  1.00  0.00    -0.035 C 
HETATM   11  C   UNL     1      -0.674  -1.564   0.660  1.00  0.00     0.009 C 
HETATM   12  C   UNL     1      -1.819  -2.362   0.666  1.00  0.00     0.001 C 
HETATM   13  C   UNL     1      -1.618  -3.639   1.130  1.00  0.00     0.000 C 
HETATM   14  C   UNL     1      -0.366  -3.952   1.671  1.00  0.00     0.001 C 
HETATM   15  C   UNL     1       0.627  -2.964   1.924  1.00  0.00     0.009 C 
ENDBRANCH   1  10
TORSDOF 4
