REMARK  5 active torsions:
REMARK  status: ('A' for Active; 'I' for Inactive)
REMARK    1  A    between atoms: C_2  and  C_3 
REMARK    2  A    between atoms: C_3  and  C_4 
REMARK    3  A    between atoms: C_4  and  C_5 
REMARK    4  A    between atoms: C_5  and  C_7 
REMARK    5  A    between atoms: C_7  and  S_9 
ROOT
HETATM    1  C   UNL     1       1.732   2.000   0.000  1.00  0.00     0.063 C 
HETATM    2  C   UNL     1       1.732   3.000   0.000  1.00  0.00     0.018 C 
ENDROOT
BRANCH   1   3
HETATM    3  C   UNL     1       3.119   1.366  -0.455  1.00  0.00     0.016 C 
BRANCH   3   4
HETATM    4  C   UNL     1       4.393   2.008   0.131  1.00  0.00     0.027 C 
BRANCH   4   5
HETATM    5  C   UNL     1       5.691   1.299  -0.156  1.00  0.00    -0.037 C 
HETATM    6  C   UNL     1       5.869  -0.006  -0.397  1.00  0.00     0.007 C 
ENDBRANCH   4   5
ENDBRANCH   3   4
ENDBRANCH   1   3
BRANCH   1   7
HETATM    7  C   UNL     1       0.680   1.356  -0.978  1.00  0.00     0.189 C 
HETATM    8  O   UNL     1      -0.069   1.995  -1.706  1.00  0.00    -0.285 OA
BRANCH   7   9
HETATM    9  S   UNL     1       0.558  -0.414  -0.949  1.00  0.00    -0.097 SA
HETATM   10  C   UNL     1      -0.641  -0.589   0.382  1.00  0.00     0.098 C 
ENDBRANCH   7   9
ENDBRANCH   1   7
TORSDOF 5
