REMARK  3 active torsions:
REMARK  status: ('A' for Active; 'I' for Inactive)
REMARK    1  A    between atoms: S_2  and  C_3 
REMARK    2  A    between atoms: C_3  and  C_5 
REMARK    3  A    between atoms: C_5  and  N_6 
ROOT
HETATM    1  N   UNL     1       1.133  -0.882  -0.134  1.00  0.00    -0.325 N 
HETATM    2  C   UNL     1       2.226  -1.686   0.002  1.00  0.00     0.235 A 
HETATM    3  N   UNL     1       1.854  -2.944  -0.049  1.00  0.00    -0.144 NA
HETATM    4  N   UNL     1       0.490  -2.965  -0.227  1.00  0.00    -0.144 NA
HETATM    5  C   UNL     1       0.072  -1.720  -0.279  1.00  0.00     0.235 A 
ENDROOT
BRANCH   1   6
HETATM    6  C   UNL     1       1.178   0.562  -0.223  1.00  0.00     0.221 C 
BRANCH   6   7
HETATM    7  C   UNL     1      -0.107   1.270   0.130  1.00  0.00     0.203 C 
HETATM    8  O   UNL     1      -0.930   0.871   0.941  1.00  0.00    -0.284 OA
BRANCH   7   9
HETATM    9  S   UNL     1      -0.336   2.825  -0.674  1.00  0.00    -0.095 SA
HETATM   10  C   UNL     1       0.820   3.804   0.309  1.00  0.00     0.099 C 
ENDBRANCH   7   9
ENDBRANCH   6   7
ENDBRANCH   1   6
TORSDOF 3
