REMARK  3 active torsions:
REMARK  status: ('A' for Active; 'I' for Inactive)
REMARK    1  A    between atoms: C_2  and  S_3 
REMARK    2  A    between atoms: S_3  and  C_4 
REMARK    3  A    between atoms: C_4  and  C_5 
ROOT
HETATM    1  C   UNL     1       2.858  -1.198   0.027  1.00  0.00    -0.046 A 
HETATM    2  C   UNL     1       2.878   0.219  -0.054  1.00  0.00     0.011 A 
HETATM    3  C   UNL     1       1.697   0.970  -0.067  1.00  0.00     0.040 A 
HETATM    4  C   UNL     1       0.505   0.288   0.001  1.00  0.00     0.105 A 
HETATM    5  C   UNL     1       0.466  -1.081   0.105  1.00  0.00     0.105 A 
HETATM    6  C   UNL     1       1.615  -1.846   0.140  1.00  0.00     0.047 A 
HETATM    7  O   UNL     1      -0.806  -1.560   0.166  1.00  0.00    -0.323 OA
HETATM    8  C   UNL     1      -1.561  -0.340   0.018  1.00  0.00     0.352 A 
HETATM    9  O   UNL     1      -0.735   0.844  -0.020  1.00  0.00    -0.323 OA
ENDROOT
BRANCH   1  10
HETATM   10  C   UNL     1       4.185  -1.933   0.059  1.00  0.00     0.120 C 
BRANCH  10  11
HETATM   11  S   UNL     1       4.144  -3.670  -0.453  1.00  0.00    -0.097 SA
BRANCH  11  12
HETATM   12  C   UNL     1       5.814  -4.098  -0.132  1.00  0.00     0.304 C 
HETATM   13  O   UNL     1       6.193  -5.261  -0.150  1.00  0.00    -0.295 OA
ENDBRANCH  11  12
ENDBRANCH  10  11
ENDBRANCH   1  10
TORSDOF 3
