REMARK  2 active torsions:
REMARK  status: ('A' for Active; 'I' for Inactive)
REMARK    1  A    between atoms: C_4  and  O_5 
REMARK    2  A    between atoms: C_6  and  C_8 
ROOT
HETATM    1  C   UNL     1       1.732   3.000   0.000  1.00  0.00     0.229 C 
HETATM    2  S   UNL     1       1.732   2.000   0.000  1.00  0.00    -0.297 SA
HETATM    3  C   UNL     1       3.424   1.847   0.506  1.00  0.00     0.066 C 
HETATM    4  C   UNL     1       3.358   0.454   0.043  1.00  0.00     0.137 C 
HETATM    5  C   UNL     1       1.732   0.000   0.000  1.00  0.00     0.054 C 
HETATM    6  C   UNL     1       1.732  -1.000   0.000  1.00  0.00     0.024 C 
ENDROOT
BRANCH   5   7
HETATM    7  C   UNL     1       0.024   0.203   0.566  1.00  0.00    -0.047 C 
HETATM    8  C   UNL     1      -1.026  -0.063  -0.343  1.00  0.00     0.008 C 
HETATM    9  C   UNL     1      -2.293   0.491  -0.137  1.00  0.00     0.001 C 
HETATM   10  C   UNL     1      -2.521   1.348   0.938  1.00  0.00     0.000 C 
HETATM   11  C   UNL     1      -1.525   1.553   1.889  1.00  0.00     0.001 C 
HETATM   12  C   UNL     1      -0.282   0.927   1.753  1.00  0.00     0.008 C 
ENDBRANCH   5   7
BRANCH   4  13
HETATM   13  O   UNL     1       4.186  -0.346   0.930  1.00  0.00    -0.394 OA
HETATM   14  H   UNL     1       4.232  -1.253   0.560  1.00  0.00     0.210 HD
ENDBRANCH   4  13
TORSDOF 2
