REMARK  6 active torsions:
REMARK  status: ('A' for Active; 'I' for Inactive)
REMARK    1  A    between atoms: C_2  and  N_3 
REMARK    2  A    between atoms: C_2  and  C_14 
REMARK       I    between atoms: N_3  and  C_4 
REMARK    3  A    between atoms: C_4  and  O_6 
REMARK    4  A    between atoms: O_6  and  C_7 
REMARK    5  A    between atoms: C_14  and  O_16 
REMARK    6  A    between atoms: O_16  and  C_17 
ROOT
HETATM    1  N   UNL     1      -0.497   2.815  -0.196  1.00  0.00    -0.323 N 
HETATM    2  C   UNL     1      -0.801   1.483  -0.214  1.00  0.00     0.366 C 
HETATM    3  O   UNL     1      -1.884   1.118  -0.663  1.00  0.00    -0.238 OA
HETATM    4  H   UNL     1      -1.218   3.321  -0.696  1.00  0.00     0.165 HD
ENDROOT
BRANCH   1   5
HETATM    5  C   UNL     1       0.866   3.500   0.000  1.00  0.00     0.182 C 
HETATM    6  C   UNL     1       0.866   4.500   0.000  1.00  0.00     0.043 C 
BRANCH   5   7
HETATM    7  C   UNL     1       1.564   3.296  -1.360  1.00  0.00     0.282 C 
HETATM    8  O   UNL     1       1.037   3.081  -2.440  1.00  0.00    -0.263 OA
BRANCH   7   9
HETATM    9  O   UNL     1       2.907   3.563  -1.228  1.00  0.00    -0.310 OA
BRANCH   9  10
HETATM   10  C   UNL     1       3.464   3.000   0.000  1.00  0.00     0.060 A 
HETATM   11  C   UNL     1       4.464   3.000   0.000  1.00  0.00     0.045 A 
HETATM   12  C   UNL     1       3.464   2.000   0.000  1.00  0.00     0.045 A 
HETATM   13  C   UNL     1       3.393   4.184   1.093  1.00  0.00     0.045 C 
ENDBRANCH   9  10
ENDBRANCH   7   9
ENDBRANCH   5   7
ENDBRANCH   1   5
BRANCH   2  14
HETATM   14  O   UNL     1       0.199   0.680   0.232  1.00  0.00    -0.256 OA
BRANCH  14  15
HETATM   15  C   UNL     1       0.049  -0.699   0.001  1.00  0.00     0.148 C 
HETATM   16  C   UNL     1      -1.148  -1.485   0.446  1.00  0.00     0.187 C 
HETATM   17  C   UNL     1      -1.241  -2.900  -0.069  1.00  0.00     0.112 C 
HETATM   18  O   UNL     1      -1.995  -1.012   1.200  1.00  0.00    -0.290 OA
HETATM   19  C   UNL     1       0.150  -3.498  -0.028  1.00  0.00     0.182 C 
HETATM   20  O   UNL     1       1.081  -2.749  -0.811  1.00  0.00    -0.360 OA
HETATM   21  C   UNL     1       1.040  -1.393  -0.587  1.00  0.00     0.175 C 
ENDBRANCH  14  15
ENDBRANCH   2  14
TORSDOF 6
