REMARK  5 active torsions:
REMARK  status: ('A' for Active; 'I' for Inactive)
REMARK    1  A    between atoms: S_2  and  C_3 
REMARK    2  A    between atoms: N_5  and  C_6 
REMARK    3  A    between atoms: C_6  and  C_7 
REMARK    4  A    between atoms: C_7  and  C_8 
REMARK    5  A    between atoms: C_8  and  N_9 
ROOT
HETATM    1  N   UNL     1      -0.156  -1.391   0.703  1.00  0.00    -0.275 NA
HETATM    2  C   UNL     1      -1.295  -1.148   0.595  1.00  0.00     0.157 C 
HETATM    3  S   UNL     1      -2.853  -0.832   0.445  1.00  0.00    -0.055 SA
ENDROOT
BRANCH   1   4
HETATM    4  C   UNL     1       0.753  -0.304   0.328  1.00  0.00     0.152 C 
BRANCH   4   5
HETATM    5  C   UNL     1       2.074  -0.950  -0.056  1.00  0.00     0.041 C 
BRANCH   5   6
HETATM    6  C   UNL     1       3.138   0.083  -0.370  1.00  0.00     0.122 C 
BRANCH   6   7
HETATM    7  N   UNL     1       4.431  -0.570  -0.480  1.00  0.00    -0.378 N 
HETATM    8  C   UNL     1       5.632   0.064  -0.348  1.00  0.00     0.103 C 
HETATM    9  S   UNL     1       5.875   1.717  -0.435  1.00  0.00    -0.056 SA
HETATM   10  H   UNL     1       4.449  -1.581  -0.452  1.00  0.00     0.160 HD
BRANCH   8  11
HETATM   11  S   UNL     1       6.928  -1.000   0.000  1.00  0.00    -0.239 SA
HETATM   12  C   UNL     1       6.928  -2.000   0.000  1.00  0.00     0.268 C 
ENDBRANCH   8  11
ENDBRANCH   6   7
ENDBRANCH   5   6
ENDBRANCH   4   5
ENDBRANCH   1   4
TORSDOF 5
