REMARK  7 active torsions:
REMARK  status: ('A' for Active; 'I' for Inactive)
REMARK    1  A    between atoms: S_2  and  C_3 
REMARK    2  A    between atoms: C_3  and  C_4 
REMARK    3  A    between atoms: C_3  and  C_6 
REMARK    4  A    between atoms: C_4  and  O_5 
REMARK    5  A    between atoms: C_6  and  O_7 
REMARK    6  A    between atoms: O_7  and  C_8 
REMARK    7  A    between atoms: C_8  and  C_9 
ROOT
HETATM    1  O   UNL     1       1.511   0.902   0.795  1.00  0.00    -0.385 OA
ENDROOT
BRANCH   1   2
HETATM    2  C   UNL     1       2.598   1.500   0.000  1.00  0.00     0.185 C 
BRANCH   2   3
HETATM    3  C   UNL     1       2.598   2.500   0.000  1.00  0.00     0.094 C 
BRANCH   3   4
HETATM    4  S   UNL     1       4.120   2.867  -1.303  1.00  0.00    -0.164 SA
HETATM    5  C   UNL     1       5.537   2.471  -0.244  1.00  0.00     0.090 C 
ENDBRANCH   3   4
BRANCH   3   6
HETATM    6  C   UNL     1       1.190   2.853  -0.870  1.00  0.00     0.181 C 
BRANCH   6   7
HETATM    7  O   UNL     1       0.814   1.915  -1.880  1.00  0.00    -0.400 OA
HETATM    8  H   UNL     1      -0.077   2.162  -2.179  1.00  0.00     0.209 HD
ENDBRANCH   6   7
ENDBRANCH   3   6
ENDBRANCH   2   3
ENDBRANCH   1   2
BRANCH   1   9
HETATM    9  C   UNL     1       1.564  -0.536   0.776  1.00  0.00     0.206 C 
BRANCH   9  10
HETATM   10  C   UNL     1       0.218  -1.189   0.558  1.00  0.00    -0.035 A 
HETATM   11  C   UNL     1      -0.973  -0.463   0.469  1.00  0.00     0.011 A 
HETATM   12  C   UNL     1      -2.193  -1.115   0.259  1.00  0.00     0.019 A 
HETATM   13  C   UNL     1      -2.227  -2.504   0.139  1.00  0.00     0.011 A 
HETATM   14  C   UNL     1      -1.055  -3.246   0.226  1.00  0.00     0.019 A 
HETATM   15 BR   UNL     1      -3.875  -3.385  -0.146  1.00  0.00    -0.051 Br
HETATM   16  C   UNL     1       0.161  -2.590   0.438  1.00  0.00     0.011 A 
ENDBRANCH   9  10
ENDBRANCH   1   9
TORSDOF 7
