REMARK  7 active torsions:
REMARK  status: ('A' for Active; 'I' for Inactive)
REMARK    1  A    between atoms: N_1  and  C_2 
REMARK    2  A    between atoms: C_6  and  N_7 
REMARK    3  A    between atoms: N_7  and  C_8 
REMARK    4  A    between atoms: C_8  and  C_9 
REMARK    5  A    between atoms: C_9  and  C_10 
REMARK    6  A    between atoms: C_10  and  S_11 
REMARK    7  A    between atoms: S_11  and  C_12 
ROOT
HETATM    1  C   UNL     1      -1.384  -1.028   0.114  1.00  0.00     0.200 A 
HETATM    2  N   UNL     1      -2.642  -0.592   0.049  1.00  0.00    -0.231 NA
HETATM    3  C   UNL     1      -2.803   0.741   0.068  1.00  0.00     0.123 A 
HETATM    4  C   UNL     1      -1.759   1.632   0.141  1.00  0.00     0.063 A 
HETATM    5  C   UNL     1      -0.500   1.086   0.172  1.00  0.00     0.107 A 
HETATM    6  N   UNL     1      -0.304  -0.243   0.139  1.00  0.00    -0.207 NA
ENDROOT
BRANCH   5   7
HETATM    7  N   UNL     1       0.664   1.821   0.314  1.00  0.00    -0.277 NA
HETATM    8  H   UNL     1       1.407   1.164   0.094  1.00  0.00     0.129 HD
BRANCH   7   9
HETATM    9  C   UNL     1       0.784   3.168  -0.214  1.00  0.00     0.094 C 
BRANCH   9  10
HETATM   10  C   UNL     1       2.178   3.773   0.030  1.00  0.00     0.025 C 
BRANCH  10  11
HETATM   11  C   UNL     1       3.324   2.763   0.027  1.00  0.00     0.082 C 
BRANCH  11  12
HETATM   12  S   UNL     1       4.935   3.589   0.159  1.00  0.00    -0.101 SA
BRANCH  12  13
HETATM   13  C   UNL     1       5.959   2.160   0.211  1.00  0.00     0.304 C 
HETATM   14  O   UNL     1       7.174   2.250   0.230  1.00  0.00    -0.295 OA
ENDBRANCH  12  13
ENDBRANCH  11  12
ENDBRANCH  10  11
ENDBRANCH   9  10
ENDBRANCH   7   9
ENDBRANCH   5   7
BRANCH   1  15
HETATM   15  N   UNL     1      -1.184  -2.392   0.133  1.00  0.00    -0.271 NA
HETATM   16  H   UNL     1      -1.982  -2.863  -0.265  1.00  0.00     0.127 HD
HETATM   17  H   UNL     1      -0.271  -2.620  -0.229  1.00  0.00     0.127 HD
ENDBRANCH   1  15
TORSDOF 7
