REMARK  3 active torsions:
REMARK  status: ('A' for Active; 'I' for Inactive)
REMARK    1  A    between atoms: C_2  and  C_3 
REMARK    2  A    between atoms: C_3  and  N_6 
REMARK       I    between atoms: N_6  and  C_8 
REMARK    3  A    between atoms: C_8  and  S_10 
ROOT
HETATM    1  N   UNL     1       1.732   2.000   0.000  1.00  0.00    -0.339 N 
HETATM    2  C   UNL     1       1.732   3.000   0.000  1.00  0.00     0.154 C 
HETATM    3  C   UNL     1       0.628   1.260  -0.483  1.00  0.00     0.281 C 
HETATM    4  O   UNL     1       0.494   0.854  -1.631  1.00  0.00    -0.260 OA
ENDROOT
BRANCH   1   5
HETATM    5  C   UNL     1       3.070   1.249   0.053  1.00  0.00     0.028 C 
HETATM    6  C   UNL     1       3.009   0.274   1.253  1.00  0.00     0.038 C 
HETATM    7  C   UNL     1       3.308   0.404  -1.227  1.00  0.00     0.038 C 
BRANCH   5   8
HETATM    8  C   UNL     1       4.295   2.221   0.234  1.00  0.00     0.026 C 
HETATM    9  C   UNL     1       5.663   1.572   0.426  1.00  0.00     0.007 C 
ENDBRANCH   5   8
ENDBRANCH   1   5
BRANCH   3  10
HETATM   10  S   UNL     1      -0.566   0.909   0.766  1.00  0.00    -0.074 SA
HETATM   11  C   UNL     1      -0.943  -0.786   0.272  1.00  0.00     0.100 C 
ENDBRANCH   3  10
TORSDOF 3
