REMARK  3 active torsions:
REMARK  status: ('A' for Active; 'I' for Inactive)
REMARK    1  A    between atoms: C_6  and  C_7 
REMARK    2  A    between atoms: C_7  and  C_8 
REMARK    3  A    between atoms: C_14  and  O_15 
ROOT
HETATM    1  C   UNL     1      -0.331  -1.408  -0.313  1.00  0.00    -0.015 C 
HETATM    2  C   UNL     1      -1.453  -0.730   0.002  1.00  0.00    -0.025 C 
HETATM    3  C   UNL     1      -2.706  -1.505   0.383  1.00  0.00     0.068 C 
HETATM    4  C   UNL     1      -3.966  -0.795  -0.104  1.00  0.00     0.179 C 
HETATM    5  O   UNL     1      -4.060   0.548   0.385  1.00  0.00    -0.360 OA
HETATM    6  C   UNL     1      -2.881   1.241   0.255  1.00  0.00     0.171 C 
HETATM    7  C   UNL     1      -1.664   0.715   0.041  1.00  0.00     0.093 C 
ENDROOT
BRANCH   1   8
HETATM    8  C   UNL     1       1.044  -0.904  -0.689  1.00  0.00     0.063 C 
BRANCH   8   9
HETATM    9  C   UNL     1       2.200  -1.708  -0.053  1.00  0.00     0.226 C 
HETATM   10  N   UNL     1       3.535  -1.208  -0.441  1.00  0.00     0.089 N 
HETATM   11  C   UNL     1       3.909   0.024   0.243  1.00  0.00     0.310 C 
HETATM   12  C   UNL     1       4.498  -2.288  -0.196  1.00  0.00     0.272 C 
HETATM   13  C   UNL     1       3.686  -3.575  -0.178  1.00  0.00     0.032 C 
HETATM   14  C   UNL     1       2.276  -3.152  -0.547  1.00  0.00     0.038 C 
ENDBRANCH   8   9
ENDBRANCH   1   8
BRANCH   7  15
HETATM   15  O   UNL     1      -0.561   1.513  -0.120  1.00  0.00    -0.358 OA
HETATM   16  H   UNL     1      -0.848   2.441  -0.131  1.00  0.00     0.217 HD
ENDBRANCH   7  15
TORSDOF 3
