REMARK  4 active torsions:
REMARK  status: ('A' for Active; 'I' for Inactive)
REMARK    1  A    between atoms: S_2  and  C_3 
REMARK    2  A    between atoms: C_3  and  N_5 
REMARK    3  A    between atoms: N_5  and  C_6 
REMARK    4  A    between atoms: C_9  and  C_10 
ROOT
HETATM    1  C   UNL     1      -0.222  -1.289   0.019  1.00  0.00     0.033 A 
HETATM    2  C   UNL     1       0.049  -2.662   0.033  1.00  0.00     0.030 A 
HETATM    3  C   UNL     1      -0.993  -3.605   0.020  1.00  0.00     0.016 A 
HETATM    4  C   UNL     1      -2.332  -3.197  -0.029  1.00  0.00    -0.001 A 
HETATM    5  C   UNL     1      -2.592  -1.824  -0.090  1.00  0.00     0.016 A 
HETATM    6  C   UNL     1      -1.552  -0.885  -0.075  1.00  0.00     0.030 A 
ENDROOT
BRANCH   1   7
HETATM    7  N   UNL     1       0.881  -0.404   0.057  1.00  0.00    -0.344 N 
HETATM    8  H   UNL     1       1.787  -0.820  -0.127  1.00  0.00     0.167 HD
BRANCH   7   9
HETATM    9  C   UNL     1       0.960   0.936   0.373  1.00  0.00     0.107 C 
HETATM   10  S   UNL     1      -0.208   1.919   1.077  1.00  0.00    -0.056 SA
BRANCH   9  11
HETATM   11  S   UNL     1       2.598   1.500   0.000  1.00  0.00    -0.239 SA
HETATM   12  C   UNL     1       2.598   2.500   0.000  1.00  0.00     0.268 C 
ENDBRANCH   9  11
ENDBRANCH   7   9
ENDBRANCH   1   7
BRANCH   4  13
HETATM   13  C   UNL     1      -3.423  -4.162  -0.019  1.00  0.00     0.104 A 
HETATM   14  O   UNL     1      -4.701  -3.660  -0.029  1.00  0.00    -0.302 OA
HETATM   15  C   UNL     1      -5.498  -4.761  -0.005  1.00  0.00     0.258 A 
HETATM   16  N   UNL     1      -4.860  -5.908   0.016  1.00  0.00    -0.246 NA
HETATM   17  C   UNL     1      -3.538  -5.537   0.009  1.00  0.00     0.156 A 
ENDBRANCH   4  13
TORSDOF 4
