REMARK  5 active torsions:
REMARK  status: ('A' for Active; 'I' for Inactive)
REMARK    1  A    between atoms: C_2  and  C_3 
REMARK    2  A    between atoms: C_3  and  C_5 
REMARK    3  A    between atoms: C_5  and  C_6 
REMARK    4  A    between atoms: C_5  and  N_9 
REMARK    5  A    between atoms: C_6  and  O_8 
ROOT
HETATM    1  C   UNL     1       1.932   1.652  -0.634  1.00  0.00     0.212 C 
ENDROOT
BRANCH   1   2
HETATM    2  C   UNL     1       3.291   1.514   0.126  1.00  0.00     0.016 C 
HETATM    3  C   UNL     1       4.168   2.766  -0.037  1.00  0.00     0.012 C 
BRANCH   2   4
HETATM    4  C   UNL     1       4.139   0.303  -0.366  1.00  0.00     0.002 C 
HETATM    5  C   UNL     1       3.870  -1.027   0.330  1.00  0.00     0.005 C 
ENDBRANCH   2   4
ENDBRANCH   1   2
BRANCH   1   6
HETATM    6  C   UNL     1       1.183   2.951  -0.370  1.00  0.00     0.166 C 
HETATM    7  O   UNL     1       1.280   3.689   0.597  1.00  0.00    -0.648 OA
BRANCH   6   8
HETATM    8  O   UNL     1       0.321   3.262  -1.362  1.00  0.00    -0.775 OA
HETATM    9  H   UNL     1      -0.143   4.060  -1.027  1.00  0.00     0.167 HD
ENDBRANCH   6   8
ENDBRANCH   1   6
BRANCH   1  10
HETATM   10  N   UNL     1       1.040   0.551  -0.319  1.00  0.00    -0.245 N 
HETATM   11  N   UNL     1       0.415   0.503   0.862  1.00  0.00    -0.065 NA
HETATM   12  N   UNL     1       0.080  -0.756   1.071  1.00  0.00    -0.136 NA
HETATM   13  C   UNL     1       0.500  -1.539   0.000  1.00  0.00     0.071 C 
HETATM   14  C   UNL     1       0.956  -0.650  -0.962  1.00  0.00     0.143 C 
HETATM   15  C   UNL     1       0.500  -2.539   0.000  1.00  0.00     0.074 C 
ENDBRANCH   1  10
TORSDOF 5
