REMARK  3 active torsions:
REMARK  status: ('A' for Active; 'I' for Inactive)
REMARK    1  A    between atoms: O_2  and  C_3 
REMARK    2  A    between atoms: C_3  and  C_5 
REMARK    3  A    between atoms: C_10  and  N_11 
ROOT
HETATM    1  C   UNL     1       1.207   0.314  -0.382  1.00  0.00     0.122 A 
HETATM    2  C   UNL     1       1.065  -1.063  -0.498  1.00  0.00     0.176 A 
HETATM    3  F   UNL     1       2.126  -1.862  -0.681  1.00  0.00    -0.202 F 
HETATM    4  C   UNL     1      -0.191  -1.637  -0.433  1.00  0.00     0.187 A 
HETATM    5  F   UNL     1      -0.262  -2.978  -0.469  1.00  0.00    -0.200 F 
HETATM    6  C   UNL     1      -1.328  -0.851  -0.246  1.00  0.00     0.137 A 
HETATM    7  C   UNL     1      -1.192   0.527  -0.120  1.00  0.00     0.187 A 
HETATM    8  F   UNL     1      -2.264   1.314   0.037  1.00  0.00    -0.200 F 
HETATM    9  C   UNL     1       0.075   1.112  -0.209  1.00  0.00     0.176 A 
HETATM   10  F   UNL     1       0.191   2.445  -0.130  1.00  0.00    -0.202 F 
ENDROOT
BRANCH   6  11
HETATM   11  N   UNL     1      -2.566  -1.501  -0.113  1.00  0.00    -0.241 N 
HETATM   12  N   UNL     1      -3.484  -1.154   0.807  1.00  0.00     0.010 NA
HETATM   13  N   UNL     1      -4.175  -2.250   1.118  1.00  0.00    -0.163 NA
HETATM   14  C   UNL     1      -3.775  -3.249   0.271  1.00  0.00     0.065 C 
HETATM   15  C   UNL     1      -2.892  -2.730  -0.638  1.00  0.00     0.143 C 
HETATM   16  C   UNL     1      -4.176  -4.660   0.422  1.00  0.00     0.073 C 
ENDBRANCH   6  11
BRANCH   1  17
HETATM   17  C   UNL     1       2.545   0.900  -0.468  1.00  0.00     0.299 C 
HETATM   18  O   UNL     1       2.831   1.846  -1.177  1.00  0.00    -0.259 OA
BRANCH  17  19
HETATM   19  O   UNL     1       3.360   0.191   0.347  1.00  0.00    -0.322 OA
HETATM   20  C   UNL     1       4.758   0.479   0.280  1.00  0.00     0.213 C 
ENDBRANCH  17  19
ENDBRANCH   1  17
TORSDOF 3
