REMARK  3 active torsions:
REMARK  status: ('A' for Active; 'I' for Inactive)
REMARK    1  A    between atoms: S_2  and  C_3 
REMARK       I    between atoms: C_3  and  N_5 
REMARK    2  A    between atoms: N_5  and  C_6 
REMARK    3  A    between atoms: C_9  and  C_10 
ROOT
HETATM    1  C   UNL     1      -0.289  -1.047  -0.146  1.00  0.00     0.035 A 
HETATM    2  C   UNL     1      -0.179  -2.439  -0.110  1.00  0.00     0.030 A 
HETATM    3  C   UNL     1      -1.333  -3.264  -0.065  1.00  0.00     0.017 A 
HETATM    4  C   UNL     1      -2.631  -2.720  -0.049  1.00  0.00     0.012 A 
HETATM    5  C   UNL     1      -2.722  -1.327  -0.073  1.00  0.00     0.017 A 
HETATM    6  C   UNL     1      -1.580  -0.510  -0.114  1.00  0.00     0.030 A 
ENDROOT
BRANCH   1   7
HETATM    7  N   UNL     1       0.891  -0.245  -0.196  1.00  0.00    -0.318 N 
HETATM    8  C   UNL     1       0.905   1.124  -0.416  1.00  0.00     0.283 C 
HETATM    9  O   UNL     1      -0.080   1.816  -0.659  1.00  0.00    -0.260 OA
HETATM   10  H   UNL     1       1.776  -0.719  -0.145  1.00  0.00     0.169 HD
BRANCH   8  11
HETATM   11  S   UNL     1       2.441   1.967  -0.419  1.00  0.00    -0.073 SA
HETATM   12  C   UNL     1       3.700   0.932   0.298  1.00  0.00     0.100 C 
ENDBRANCH   8  11
ENDBRANCH   1   7
BRANCH   4  13
HETATM   13  C   UNL     1      -3.851  -3.565  -0.006  1.00  0.00     0.159 A 
HETATM   14  N   UNL     1      -5.046  -2.945   0.013  1.00  0.00    -0.241 NA
HETATM   15  C   UNL     1      -6.143  -3.729   0.043  1.00  0.00     0.120 A 
HETATM   16  C   UNL     1      -6.088  -5.100   0.058  1.00  0.00     0.038 A 
HETATM   17  C   UNL     1      -4.824  -5.639   0.041  1.00  0.00     0.120 A 
HETATM   18  N   UNL     1      -3.695  -4.905   0.009  1.00  0.00    -0.241 NA
ENDBRANCH   4  13
TORSDOF 3
