REMARK  8 active torsions:
REMARK  status: ('A' for Active; 'I' for Inactive)
REMARK    1  A    between atoms: S_2  and  C_3 
REMARK    2  A    between atoms: C_3  and  N_5 
REMARK    3  A    between atoms: N_5  and  C_6 
REMARK    4  A    between atoms: C_6  and  C_7 
REMARK    5  A    between atoms: C_7  and  C_8 
REMARK    6  A    between atoms: C_8  and  N_9 
REMARK       I    between atoms: N_9  and  C_10 
REMARK    7  A    between atoms: C_10  and  O_12 
REMARK    8  A    between atoms: O_12  and  C_13 
ROOT
HETATM    1  C   UNL     1       3.320  -1.472   0.712  1.00  0.00     0.126 C 
ENDROOT
BRANCH   1   2
HETATM    2  C   UNL     1       4.726  -1.332   0.216  1.00  0.00     0.034 C 
BRANCH   2   3
HETATM    3  C   UNL     1       5.190   0.118   0.247  1.00  0.00     0.095 C 
BRANCH   3   4
HETATM    4  N   UNL     1       6.287   0.251   1.193  1.00  0.00    -0.280 NA
HETATM    5  H   UNL     1       6.109  -0.257   2.049  1.00  0.00     0.128 HD
BRANCH   4   6
HETATM    6  C   UNL     1       7.563  -0.008   0.733  1.00  0.00     0.083 C 
HETATM    7  S   UNL     1       8.681   1.223   0.685  1.00  0.00    -0.062 SA
BRANCH   6   8
HETATM    8  S   UNL     1       7.794  -1.500   0.000  1.00  0.00    -0.244 SA
HETATM    9  C   UNL     1       7.794  -2.500   0.000  1.00  0.00     0.266 C 
ENDBRANCH   6   8
ENDBRANCH   4   6
ENDBRANCH   3   4
ENDBRANCH   2   3
ENDBRANCH   1   2
BRANCH   1  10
HETATM   10  N   UNL     1       2.565  -2.145  -0.307  1.00  0.00    -0.337 N 
HETATM   11  C   UNL     1       2.021  -1.391  -1.284  1.00  0.00     0.361 C 
HETATM   12  O   UNL     1       2.642  -0.592  -1.981  1.00  0.00    -0.238 OA
HETATM   13  H   UNL     1       2.036  -2.939   0.001  1.00  0.00     0.164 HD
BRANCH  11  14
HETATM   14  O   UNL     1       0.648  -1.487  -1.301  1.00  0.00    -0.294 OA
BRANCH  14  15
HETATM   15  C   UNL     1       0.000  -1.000   0.000  1.00  0.00     0.061 A 
HETATM   16  C   UNL     1      -1.000  -1.000   0.000  1.00  0.00     0.046 A 
HETATM   17  C   UNL     1       0.000   0.000   0.000  1.00  0.00     0.046 A 
HETATM   18  C   UNL     1      -0.064  -2.484   0.650  1.00  0.00     0.046 C 
ENDBRANCH  14  15
ENDBRANCH  11  14
ENDBRANCH   1  10
TORSDOF 8
