REMARK  3 active torsions:
REMARK  status: ('A' for Active; 'I' for Inactive)
REMARK    1  A    between atoms: N_4  and  C_5 
REMARK    2  A    between atoms: C_5  and  C_6 
REMARK    3  A    between atoms: C_6  and  C_8 
ROOT
HETATM    1  C   UNL     1      -4.202   1.626   0.532  1.00  0.00     0.124 C 
HETATM    2  C   UNL     1      -3.863   0.471   1.216  1.00  0.00     0.055 C 
HETATM    3  C   UNL     1      -4.807  -0.519   0.841  1.00  0.00     0.001 A 
HETATM    4  C   UNL     1      -4.947  -1.904   1.043  1.00  0.00     0.014 A 
HETATM    5  C   UNL     1      -6.057  -2.553   0.483  1.00  0.00     0.001 A 
HETATM    6  C   UNL     1      -7.024  -1.840  -0.230  1.00  0.00     0.003 A 
HETATM    7  C   UNL     1      -6.901  -0.463  -0.439  1.00  0.00     0.038 A 
HETATM    8  C   UNL     1      -5.764   0.143   0.089  1.00  0.00     0.086 A 
HETATM    9  O   UNL     1      -5.412   1.444  -0.082  1.00  0.00    -0.306 OA
ENDROOT
BRANCH   1  10
HETATM   10  C   UNL     1      -3.541   2.892   0.313  1.00  0.00     0.202 C 
HETATM   11  O   UNL     1      -4.155   3.965   0.397  1.00  0.00    -0.288 OA
BRANCH  10  12
HETATM   12  C   UNL     1      -2.100   2.953  -0.171  1.00  0.00     0.232 C 
BRANCH  12  13
HETATM   13  N   UNL     1      -1.324   1.739  -0.041  1.00  0.00    -0.276 N 
HETATM   14  C   UNL     1      -1.454   0.553  -0.703  1.00  0.00     0.136 C 
HETATM   15  C   UNL     1      -0.742  -0.330   0.093  1.00  0.00     0.065 C 
HETATM   16  C   UNL     1      -0.748  -1.804   0.152  1.00  0.00     0.073 C 
HETATM   17  N   UNL     1      -0.049   0.383   1.032  1.00  0.00    -0.164 NA
HETATM   18  N   UNL     1      -0.391   1.656   0.920  1.00  0.00     0.005 NA
ENDBRANCH  12  13
ENDBRANCH  10  12
ENDBRANCH   1  10
TORSDOF 3
