REMARK  6 active torsions:
REMARK  status: ('A' for Active; 'I' for Inactive)
REMARK    1  A    between atoms: C_2  and  C_3 
REMARK    2  A    between atoms: C_3  and  C_4 
REMARK    3  A    between atoms: C_3  and  C_10 
REMARK    4  A    between atoms: C_4  and  C_5 
REMARK    5  A    between atoms: C_5  and  C_6 
REMARK    6  A    between atoms: C_6  and  S_8 
ROOT
HETATM    1  C   UNL     1       1.489   1.783   0.550  1.00  0.00     0.009 C 
ENDROOT
BRANCH   1   2
HETATM    2  C   UNL     1       1.312   0.276   0.427  1.00  0.00     0.051 C 
BRANCH   2   3
HETATM    3  C   UNL     1       2.598  -0.500   0.000  1.00  0.00     0.007 C 
HETATM    4  C   UNL     1       2.598  -1.500   0.000  1.00  0.00     0.006 C 
ENDBRANCH   2   3
BRANCH   2   5
HETATM    5  C   UNL     1       0.118  -0.057  -0.469  1.00  0.00     0.236 C 
HETATM    6  O   UNL     1      -0.529   0.759  -1.133  1.00  0.00    -0.306 OA
ENDBRANCH   2   5
ENDBRANCH   1   2
BRANCH   1   7
HETATM    7  C   UNL     1       2.498   2.639  -0.175  1.00  0.00     0.096 C 
BRANCH   7   8
HETATM    8  C   UNL     1       3.964   2.418   0.203  1.00  0.00     0.186 C 
HETATM    9  O   UNL     1       4.412   2.617   1.328  1.00  0.00    -0.286 OA
BRANCH   8  10
HETATM   10  S   UNL     1       5.005   1.803  -1.088  1.00  0.00    -0.097 SA
HETATM   11  C   UNL     1       5.992   0.645  -0.111  1.00  0.00     0.098 C 
ENDBRANCH   8  10
ENDBRANCH   7   8
ENDBRANCH   1   7
TORSDOF 6
