REMARK  3 active torsions:
REMARK  status: ('A' for Active; 'I' for Inactive)
REMARK    1  A    between atoms: C_3  and  C_5 
REMARK    2  A    between atoms: C_5  and  N_7 
REMARK    3  A    between atoms: N_7  and  C_8 
ROOT
HETATM    1  C   UNL     1       1.154   0.864   0.635  1.00  0.00     0.082 C 
HETATM    2  C   UNL     1      -0.094   1.729   0.331  1.00  0.00     0.032 C 
ENDROOT
BRANCH   1   3
HETATM    3  C   UNL     1       2.598   1.500   0.000  1.00  0.00    -0.005 A 
HETATM    4  C   UNL     1       3.464   1.000   0.000  1.00  0.00    -0.002 A 
HETATM    5  C   UNL     1       3.464   0.000   0.000  1.00  0.00     0.015 A 
HETATM    6  C   UNL     1       2.598   2.500   0.000  1.00  0.00     0.015 A 
ENDBRANCH   1   3
BRANCH   1   7
HETATM    7  N   UNL     1       0.867  -0.470   0.041  1.00  0.00    -0.364 N 
HETATM    8  H   UNL     1       1.188  -0.654  -0.900  1.00  0.00     0.162 HD
BRANCH   7   9
HETATM    9  C   UNL     1       0.081  -1.419   0.610  1.00  0.00     0.348 C 
HETATM   10  O   UNL     1      -0.503  -1.325   1.681  1.00  0.00    -0.284 OA
ENDBRANCH   7   9
ENDBRANCH   1   7
TORSDOF 3
