REMARK  3 active torsions:
REMARK  status: ('A' for Active; 'I' for Inactive)
REMARK    1  A    between atoms: C_7  and  N_8 
REMARK    2  A    between atoms: N_8  and  C_9 
REMARK    3  A    between atoms: C_13  and  O_14 
ROOT
HETATM    1  N   UNL     1       1.103  -1.238   1.150  1.00  0.00     0.102 N 
HETATM    2  H   UNL     1       0.987  -2.148   1.581  1.00  0.00     0.317 HD
ENDROOT
BRANCH   1   3
HETATM    3  C   UNL     1       2.544  -1.027   0.845  1.00  0.00     0.298 C 
HETATM    4  C   UNL     1       3.095   0.412   0.643  1.00  0.00     0.204 C 
HETATM    5  O   UNL     1       2.633   1.278   1.438  1.00  0.00    -0.289 OA
HETATM    6  C   UNL     1       4.021   0.595  -0.326  1.00  0.00     0.186 C 
HETATM    7  O   UNL     1       4.621  -0.359  -1.105  1.00  0.00    -0.359 OA
HETATM    8  C   UNL     1       4.452  -1.677  -0.585  1.00  0.00     0.177 C 
HETATM    9  C   UNL     1       2.995  -1.968  -0.279  1.00  0.00     0.070 C 
ENDBRANCH   1   3
BRANCH   1  10
HETATM   10  C   UNL     1       0.000  -1.000   0.000  1.00  0.00     0.247 C 
HETATM   11  C   UNL     1      -1.453  -1.321   0.811  1.00  0.00     0.203 C 
HETATM   12  O   UNL     1      -2.609  -0.857   0.102  1.00  0.00    -0.386 OA
HETATM   13  C   UNL     1      -2.456   0.535  -0.139  1.00  0.00     0.199 C 
HETATM   14  C   UNL     1      -1.106   0.760  -0.806  1.00  0.00     0.144 C 
HETATM   15  C   UNL     1       0.000   0.000   0.000  1.00  0.00     0.071 C 
BRANCH  14  16
HETATM   16  O   UNL     1      -0.844   2.168  -0.857  1.00  0.00    -0.393 OA
HETATM   17  H   UNL     1       0.015   2.317  -0.401  1.00  0.00     0.210 HD
ENDBRANCH  14  16
ENDBRANCH   1  10
TORSDOF 3
