REMARK  4 active torsions:
REMARK  status: ('A' for Active; 'I' for Inactive)
REMARK    1  A    between atoms: C_2  and  C_3 
REMARK    2  A    between atoms: C_8  and  C_9 
REMARK    3  A    between atoms: C_9  and  S_10 
REMARK    4  A    between atoms: S_10  and  C_11 
ROOT
HETATM    1  C   UNL     1       1.045  -0.770   0.018  1.00  0.00    -0.030 A 
HETATM    2  C   UNL     1       1.019  -2.181   0.005  1.00  0.00     0.012 A 
HETATM    3  C   UNL     1      -0.177  -2.898   0.006  1.00  0.00     0.001 A 
HETATM    4  C   UNL     1      -1.382  -2.220   0.007  1.00  0.00     0.001 A 
HETATM    5  C   UNL     1      -1.390  -0.826   0.011  1.00  0.00     0.009 A 
HETATM    6  C   UNL     1      -0.196  -0.069   0.036  1.00  0.00    -0.038 A 
ENDROOT
BRANCH   6   7
HETATM    7  C   UNL     1      -0.240   1.459   0.027  1.00  0.00     0.121 C 
BRANCH   7   8
HETATM    8  S   UNL     1      -1.854   2.232   0.381  1.00  0.00    -0.097 SA
BRANCH   8   9
HETATM    9  C   UNL     1      -1.446   3.912   0.118  1.00  0.00     0.304 C 
HETATM   10  O   UNL     1      -0.294   4.310   0.002  1.00  0.00    -0.295 OA
ENDBRANCH   8   9
ENDBRANCH   7   8
ENDBRANCH   6   7
BRANCH   1  11
HETATM   11  C   UNL     1       2.351  -0.062   0.001  1.00  0.00     0.002 C 
HETATM   12  C   UNL     1       3.573  -0.616   0.005  1.00  0.00     0.012 C 
ENDBRANCH   1  11
TORSDOF 4
