REMARK  3 active torsions:
REMARK  status: ('A' for Active; 'I' for Inactive)
REMARK    1  A    between atoms: C_2  and  C_3 
REMARK    2  A    between atoms: C_4  and  C_5 
REMARK    3  A    between atoms: C_5  and  S_7 
ROOT
HETATM    1  C   UNL     1       3.004   0.163  -0.407  1.00  0.00    -0.023 C 
HETATM    2  C   UNL     1       1.938  -0.449  -0.956  1.00  0.00     0.058 C 
ENDROOT
BRANCH   2   3
HETATM    3  C   UNL     1       0.673   0.293  -1.115  1.00  0.00     0.208 C 
HETATM    4  O   UNL     1       0.454   1.079  -2.020  1.00  0.00    -0.281 OA
BRANCH   3   5
HETATM    5  S   UNL     1      -0.464  -0.113   0.156  1.00  0.00    -0.093 SA
HETATM    6  C   UNL     1      -1.969   0.566  -0.556  1.00  0.00     0.099 C 
ENDBRANCH   3   5
ENDBRANCH   2   3
BRANCH   1   7
HETATM    7  C   UNL     1       4.330  -0.500   0.000  1.00  0.00     0.023 C 
HETATM    8  C   UNL     1       4.330  -1.500   0.000  1.00  0.00     0.009 C 
ENDBRANCH   1   7
TORSDOF 3
