REMARK  4 active torsions:
REMARK  status: ('A' for Active; 'I' for Inactive)
REMARK    1  A    between atoms: C_7  and  O_8 
REMARK    2  A    between atoms: O_8  and  C_9 
REMARK    3  A    between atoms: C_9  and  N_11 
REMARK    4  A    between atoms: N_11  and  C_12 
ROOT
HETATM    1  C   UNL     1       1.893  -1.125  -0.355  1.00  0.00     0.216 C 
HETATM    2  S   UNL     1       2.152  -0.628  -1.929  1.00  0.00    -0.033 SA
ENDROOT
BRANCH   1   3
HETATM    3  O   UNL     1       2.905  -1.449   0.516  1.00  0.00    -0.279 OA
BRANCH   3   4
HETATM    4  C   UNL     1       4.213  -0.975   0.290  1.00  0.00     0.146 C 
HETATM    5  C   UNL     1       4.522   0.462   0.499  1.00  0.00     0.186 C 
HETATM    6  O   UNL     1       3.755   1.197   1.113  1.00  0.00    -0.290 OA
HETATM    7  C   UNL     1       5.790   0.959  -0.136  1.00  0.00     0.112 C 
HETATM    8  C   UNL     1       6.858  -0.095   0.079  1.00  0.00     0.182 C 
HETATM    9  O   UNL     1       6.489  -1.386  -0.424  1.00  0.00    -0.360 OA
HETATM   10  C   UNL     1       5.200  -1.765  -0.151  1.00  0.00     0.175 C 
ENDBRANCH   3   4
ENDBRANCH   1   3
BRANCH   1  11
HETATM   11  N   UNL     1       0.677  -1.376   0.232  1.00  0.00    -0.347 N 
HETATM   12  H   UNL     1       0.746  -1.532   1.232  1.00  0.00     0.163 HD
BRANCH  11  13
HETATM   13  C   UNL     1      -0.617  -0.948  -0.292  1.00  0.00     0.186 C 
HETATM   14  C   UNL     1      -1.758  -1.794   0.228  1.00  0.00     0.062 C 
HETATM   15  C   UNL     1      -2.927  -0.853   0.081  1.00  0.00     0.181 C 
HETATM   16  O   UNL     1      -2.405   0.443   0.376  1.00  0.00    -0.320 OA
HETATM   17  C   UNL     1      -1.050   0.434   0.183  1.00  0.00     0.281 C 
HETATM   18  O   UNL     1      -0.333   1.405   0.359  1.00  0.00    -0.263 OA
ENDBRANCH  11  13
ENDBRANCH   1  11
TORSDOF 4
