REMARK  7 active torsions:
REMARK  status: ('A' for Active; 'I' for Inactive)
REMARK    1  A    between atoms: O_2  and  C_3 
REMARK    2  A    between atoms: C_8  and  C_9 
REMARK    3  A    between atoms: C_9  and  S_10 
REMARK    4  A    between atoms: C_9  and  C_12 
REMARK    5  A    between atoms: C_12  and  O_13 
REMARK    6  A    between atoms: C_12  and  C_14 
REMARK    7  A    between atoms: C_14  and  O_16 
ROOT
HETATM    1  C   UNL     1      -0.760   0.644   0.365  1.00  0.00     0.091 C 
ENDROOT
BRANCH   1   2
HETATM    2  C   UNL     1      -0.578  -0.884   0.068  1.00  0.00    -0.011 A 
HETATM    3  C   UNL     1       0.626  -1.610   0.324  1.00  0.00     0.075 A 
HETATM    4  C   UNL     1       0.749  -2.981   0.027  1.00  0.00     0.037 A 
HETATM    5  C   UNL     1      -0.315  -3.691  -0.502  1.00  0.00     0.003 A 
HETATM    6  C   UNL     1      -1.519  -3.041  -0.693  1.00  0.00     0.001 A 
HETATM    7  C   UNL     1      -1.646  -1.672  -0.408  1.00  0.00     0.011 A 
BRANCH   3   8
HETATM    8  O   UNL     1       1.672  -1.036   1.014  1.00  0.00    -0.355 OA
HETATM    9  C   UNL     1       2.914  -1.080   0.297  1.00  0.00     0.210 C 
ENDBRANCH   3   8
ENDBRANCH   1   2
BRANCH   1  10
HETATM   10  S   UNL     1       0.866   1.500   0.000  1.00  0.00    -0.284 SA
HETATM   11  C   UNL     1       0.866   2.500   0.000  1.00  0.00     0.250 C 
ENDBRANCH   1  10
BRANCH   1  12
HETATM   12  C   UNL     1      -1.873   1.468  -0.358  1.00  0.00     0.231 C 
BRANCH  12  13
HETATM   13  O   UNL     1      -2.022   2.748   0.316  1.00  0.00    -0.384 OA
HETATM   14  H   UNL     1      -2.513   3.328  -0.298  1.00  0.00     0.210 HD
ENDBRANCH  12  13
BRANCH  12  15
HETATM   15  C   UNL     1      -3.287   0.915  -0.320  1.00  0.00     0.171 C 
HETATM   16  O   UNL     1      -3.913   0.567  -1.309  1.00  0.00    -0.648 OA
BRANCH  15  17
HETATM   17  O   UNL     1      -3.831   0.891   0.925  1.00  0.00    -0.774 OA
HETATM   18  H   UNL     1      -3.250   1.342   1.570  1.00  0.00     0.167 HD
ENDBRANCH  15  17
ENDBRANCH  12  15
ENDBRANCH   1  12
TORSDOF 7
