REMARK  6 active torsions:
REMARK  status: ('A' for Active; 'I' for Inactive)
REMARK    1  A    between atoms: C_2  and  C_3 
REMARK    2  A    between atoms: C_2  and  O_7 
REMARK    3  A    between atoms: C_3  and  S_4 
REMARK    4  A    between atoms: S_4  and  C_5 
REMARK    5  A    between atoms: O_7  and  C_8 
REMARK    6  A    between atoms: C_12  and  N_13 
ROOT
HETATM    1  C   UNL     1       0.132  -0.415   0.368  1.00  0.00     0.073 A 
HETATM    2  C   UNL     1      -0.234  -1.714   0.021  1.00  0.00     0.056 A 
HETATM    3  C   UNL     1      -1.563  -1.978  -0.267  1.00  0.00     0.121 A 
HETATM    4  N   UNL     1      -2.538  -1.053  -0.217  1.00  0.00    -0.249 NA
HETATM    5  C   UNL     1      -2.179   0.189   0.147  1.00  0.00     0.102 A 
HETATM    6  C   UNL     1      -0.871   0.547   0.453  1.00  0.00     0.080 A 
ENDROOT
BRANCH   1   7
HETATM    7  O   UNL     1       1.399  -0.017   0.755  1.00  0.00    -0.345 OA
BRANCH   7   8
HETATM    8  C   UNL     1       2.598  -0.500   0.000  1.00  0.00     0.134 C 
HETATM    9  C   UNL     1       2.598  -1.500   0.000  1.00  0.00     0.041 C 
BRANCH   8  10
HETATM   10  C   UNL     1       3.802   0.345   0.534  1.00  0.00     0.113 C 
BRANCH  10  11
HETATM   11  S   UNL     1       3.586   2.129   0.147  1.00  0.00    -0.099 SA
BRANCH  11  12
HETATM   12  C   UNL     1       5.220   2.699   0.424  1.00  0.00     0.304 C 
HETATM   13  O   UNL     1       6.159   1.951   0.662  1.00  0.00    -0.295 OA
ENDBRANCH  11  12
ENDBRANCH  10  11
ENDBRANCH   8  10
ENDBRANCH   7   8
ENDBRANCH   1   7
BRANCH   5  14
HETATM   14  N   UNL     1      -3.221   1.108   0.243  1.00  0.00    -0.287 NA
HETATM   15  H   UNL     1      -3.039   1.929  -0.323  1.00  0.00     0.125 HD
HETATM   16  H   UNL     1      -4.062   0.620  -0.058  1.00  0.00     0.125 HD
ENDBRANCH   5  14
TORSDOF 6
