REMARK  13 active torsions:
REMARK  status: ('A' for Active; 'I' for Inactive)
REMARK       I    between atoms: N_2  and  C_3 
REMARK    1  A    between atoms: C_3  and  C_5 
REMARK    2  A    between atoms: N_9  and  C_10 
REMARK    3  A    between atoms: C_10  and  C_11 
REMARK    4  A    between atoms: C_11  and  C_12 
REMARK    5  A    between atoms: C_12  and  C_13 
REMARK    6  A    between atoms: C_12  and  C_22 
REMARK    7  A    between atoms: C_13  and  C_15 
REMARK    8  A    between atoms: C_20  and  O_21 
REMARK    9  A    between atoms: C_22  and  C_24 
REMARK   10  A    between atoms: C_24  and  O_25 
REMARK   11  A    between atoms: C_24  and  C_26 
REMARK   12  A    between atoms: C_26  and  C_28 
REMARK   13  A    between atoms: C_28  and  C_29 
ROOT
HETATM    1  C   UNL     1      -4.071   3.769  -0.071  1.00  0.00     0.134 C 
ENDROOT
BRANCH   1   2
HETATM    2  C   UNL     1      -2.992   2.984  -0.847  1.00  0.00     0.036 C 
BRANCH   2   3
HETATM    3  C   UNL     1      -1.590   3.307  -0.313  1.00  0.00     0.110 C 
BRANCH   3   4
HETATM    4  N   UNL     1      -1.389   3.002   1.110  1.00  0.00    -0.175 NA
HETATM    5  C   UNL     1      -0.141   3.350   1.573  1.00  0.00     0.209 C 
HETATM    6  C   UNL     1       0.956   2.455   1.054  1.00  0.00     0.126 C 
HETATM    7  O   UNL     1       0.079   4.289   2.327  1.00  0.00    -0.279 OA
HETATM    8  C   UNL     1       0.536   0.989   1.194  1.00  0.00     0.164 C 
HETATM    9  N   UNL     1      -0.870   0.779   0.933  1.00  0.00    -0.235 NA
HETATM   10  C   UNL     1      -1.674   1.724   1.513  1.00  0.00     0.282 C 
HETATM   11  H   UNL     1      -1.193  -0.173   1.108  1.00  0.00     0.132 HD
HETATM   12  O   UNL     1      -2.511   1.439   2.361  1.00  0.00    -0.260 OA
BRANCH   8  13
HETATM   13  C   UNL     1       1.380  -0.025   0.399  1.00  0.00     0.235 C 
HETATM   14  N   UNL     1       2.598   0.500   0.000  1.00  0.00    -0.364 N 
HETATM   15  C   UNL     1       3.464   0.000   0.000  1.00  0.00     0.149 C 
HETATM   16  H   UNL     1       2.527   1.410  -0.444  1.00  0.00     0.161 HD
HETATM   17  O   UNL     1       1.070  -1.209   0.304  1.00  0.00    -0.272 OA
ENDBRANCH   8  13
ENDBRANCH   3   4
ENDBRANCH   2   3
ENDBRANCH   1   2
BRANCH   1  18
HETATM   18  C   UNL     1      -4.551   4.905  -0.972  1.00  0.00     0.173 C 
HETATM   19  O   UNL     1      -3.783   5.484  -1.745  1.00  0.00    -0.291 OA
BRANCH  18  20
HETATM   20  C   UNL     1      -5.849   5.529  -0.747  1.00  0.00     0.044 A 
HETATM   21  C   UNL     1      -5.861   6.825  -0.207  1.00  0.00     0.079 A 
HETATM   22  C   UNL     1      -7.062   7.404   0.172  1.00  0.00     0.037 A 
HETATM   23  C   UNL     1      -8.254   6.707  -0.040  1.00  0.00     0.003 A 
HETATM   24  C   UNL     1      -8.247   5.451  -0.649  1.00  0.00     0.001 A 
HETATM   25  C   UNL     1      -7.039   4.859  -1.014  1.00  0.00     0.018 A 
BRANCH  21  26
HETATM   26  O   UNL     1      -4.721   7.561  -0.033  1.00  0.00    -0.360 OA
HETATM   27  H   UNL     1      -4.049   7.214  -0.656  1.00  0.00     0.217 HD
ENDBRANCH  21  26
ENDBRANCH  18  20
ENDBRANCH   1  18
BRANCH   1  28
HETATM   28  C   UNL     1      -5.111   2.974   0.737  1.00  0.00     0.174 C 
HETATM   29  O   UNL     1      -5.969   3.568   1.396  1.00  0.00    -0.294 OA
BRANCH  28  30
HETATM   30  C   UNL     1      -4.985   1.459   0.858  1.00  0.00     0.258 C 
BRANCH  30  31
HETATM   31  O   UNL     1      -5.296   0.949   2.147  1.00  0.00    -0.380 OA
HETATM   32  H   UNL     1      -4.483   1.099   2.680  1.00  0.00     0.211 HD
ENDBRANCH  30  31
BRANCH  30  33
HETATM   33  C   UNL     1      -5.709   0.685  -0.218  1.00  0.00     0.169 C 
HETATM   34  O   UNL     1      -6.265   1.245  -1.168  1.00  0.00    -0.294 OA
BRANCH  33  35
HETATM   35  C   UNL     1      -5.701  -0.820  -0.099  1.00  0.00     0.159 C 
BRANCH  35  36
HETATM   36  C   UNL     1      -4.330  -1.500   0.000  1.00  0.00     0.130 C 
HETATM   37  C   UNL     1      -4.330  -2.500   0.000  1.00  0.00     0.091 C 
HETATM   38  O   UNL     1      -3.321  -0.784   0.054  1.00  0.00    -0.298 OA
ENDBRANCH  35  36
ENDBRANCH  33  35
ENDBRANCH  30  33
ENDBRANCH  28  30
ENDBRANCH   1  28
TORSDOF 13
