REMARK  6 active torsions:
REMARK  status: ('A' for Active; 'I' for Inactive)
REMARK    1  A    between atoms: S_2  and  C_3 
REMARK    2  A    between atoms: C_3  and  C_4 
REMARK    3  A    between atoms: C_3  and  C_6 
REMARK    4  A    between atoms: C_4  and  O_5 
REMARK    5  A    between atoms: C_6  and  O_8 
REMARK    6  A    between atoms: O_8  and  C_9 
ROOT
HETATM    1  C   UNL     1       1.732  -1.453   1.924  1.00  0.00     0.275 C 
HETATM    2  O   UNL     1       1.650  -1.352   3.158  1.00  0.00    -0.264 OA
ENDROOT
BRANCH   1   3
HETATM    3  C   UNL     1       3.120  -1.521   1.286  1.00  0.00     0.170 C 
BRANCH   3   4
HETATM    4  S   UNL     1       3.441  -2.855   0.066  1.00  0.00    -0.156 SA
HETATM    5  C   UNL     1       2.700  -4.288   0.874  1.00  0.00     0.090 C 
ENDBRANCH   3   4
BRANCH   3   6
HETATM    6  C   UNL     1       3.649  -0.198   0.720  1.00  0.00     0.189 C 
BRANCH   6   7
HETATM    7  O   UNL     1       3.702   0.817   1.718  1.00  0.00    -0.399 OA
HETATM    8  H   UNL     1       4.214   1.562   1.353  1.00  0.00     0.209 HD
ENDBRANCH   6   7
ENDBRANCH   3   6
ENDBRANCH   1   3
BRANCH   1   9
HETATM    9  O   UNL     1       0.571  -1.629   1.244  1.00  0.00    -0.310 OA
BRANCH   9  10
HETATM   10  C   UNL     1       0.000  -1.000   0.000  1.00  0.00     0.060 A 
HETATM   11  C   UNL     1      -1.000  -1.000   0.000  1.00  0.00     0.045 A 
HETATM   12  C   UNL     1       0.000   0.000   0.000  1.00  0.00     0.045 A 
HETATM   13  C   UNL     1       0.680  -1.821  -1.171  1.00  0.00     0.045 C 
ENDBRANCH   9  10
ENDBRANCH   1   9
TORSDOF 6
