REMARK  4 active torsions:
REMARK  status: ('A' for Active; 'I' for Inactive)
REMARK    1  A    between atoms: C_2  and  S_3 
REMARK    2  A    between atoms: S_3  and  C_5 
REMARK    3  A    between atoms: C_5  and  C_6 
REMARK    4  A    between atoms: C_6  and  S_8 
ROOT
HETATM    1  C   UNL     1       2.767   0.365  -2.001  1.00  0.00     0.196 C 
ENDROOT
BRANCH   1   2
HETATM    2  S   UNL     1       4.526   0.323  -1.615  1.00  0.00     0.022 S 
HETATM    3  O   UNL     1       5.035   1.721  -1.396  1.00  0.00    -0.258 OA
BRANCH   2   4
HETATM    4  C   UNL     1       4.330  -0.500   0.000  1.00  0.00     0.104 C 
HETATM    5  C   UNL     1       4.330  -1.500   0.000  1.00  0.00     0.018 C 
ENDBRANCH   2   4
ENDBRANCH   1   2
BRANCH   1   6
HETATM    6  C   UNL     1       1.393   0.464  -1.469  1.00  0.00     0.167 C 
HETATM    7  O   UNL     1       0.620   1.274  -1.993  1.00  0.00    -0.288 OA
BRANCH   6   8
HETATM    8  S   UNL     1       0.866  -0.500   0.000  1.00  0.00    -0.231 SA
HETATM    9  C   UNL     1       0.000   0.000   0.000  1.00  0.00     0.270 C 
ENDBRANCH   6   8
ENDBRANCH   1   6
TORSDOF 4
