REMARK  9 active torsions:
REMARK  status: ('A' for Active; 'I' for Inactive)
REMARK    1  A    between atoms: S_2  and  C_3 
REMARK    2  A    between atoms: C_3  and  C_4 
REMARK    3  A    between atoms: C_3  and  C_6 
REMARK    4  A    between atoms: C_4  and  O_5 
REMARK    5  A    between atoms: C_6  and  C_7 
REMARK    6  A    between atoms: C_7  and  N_8 
REMARK    7  A    between atoms: C_10  and  C_11 
REMARK    8  A    between atoms: C_11  and  O_12 
REMARK    9  A    between atoms: O_12  and  C_13 
ROOT
HETATM    1  N   UNL     1       0.132   0.358   0.694  1.00  0.00    -0.283 N 
HETATM    2  C   UNL     1       0.064   1.353  -0.234  1.00  0.00     0.138 A 
HETATM    3  C   UNL     1       0.386   2.491   0.472  1.00  0.00     0.093 A 
HETATM    4  N   UNL     1       0.663   2.145   1.771  1.00  0.00    -0.161 NA
HETATM    5  N   UNL     1       0.497   0.835   1.896  1.00  0.00     0.004 NA
ENDROOT
BRANCH   1   6
HETATM    6  C   UNL     1      -0.372  -0.999   0.559  1.00  0.00     0.147 C 
BRANCH   6   7
HETATM    7  C   UNL     1      -1.821  -0.966   0.062  1.00  0.00     0.038 C 
BRANCH   7   8
HETATM    8  C   UNL     1      -2.704  -2.146   0.488  1.00  0.00     0.072 C 
BRANCH   8   9
HETATM    9  S   UNL     1      -4.393  -1.979  -0.248  1.00  0.00    -0.167 SA
HETATM   10  C   UNL     1      -4.878  -0.337   0.352  1.00  0.00     0.090 C 
ENDBRANCH   8   9
BRANCH   8  11
HETATM   11  C   UNL     1      -2.168  -3.522   0.065  1.00  0.00     0.179 C 
BRANCH  11  12
HETATM   12  O   UNL     1      -0.880  -3.771   0.617  1.00  0.00    -0.400 OA
HETATM   13  H   UNL     1      -0.642  -4.684   0.375  1.00  0.00     0.209 HD
ENDBRANCH  11  12
ENDBRANCH   8  11
ENDBRANCH   7   8
ENDBRANCH   6   7
ENDBRANCH   1   6
BRANCH   3  14
HETATM   14  C   UNL     1       0.484   3.903   0.004  1.00  0.00     0.237 C 
BRANCH  14  15
HETATM   15  O   UNL     1       1.323   4.099  -1.161  1.00  0.00    -0.345 OA
BRANCH  15  16
HETATM   16  C   UNL     1       2.573   3.578  -0.953  1.00  0.00     0.069 A 
HETATM   17  C   UNL     1       2.917   2.427  -1.665  1.00  0.00     0.037 A 
HETATM   18  C   UNL     1       4.083   1.746  -1.340  1.00  0.00     0.003 A 
HETATM   19  C   UNL     1       4.933   2.249  -0.352  1.00  0.00     0.000 A 
HETATM   20  C   UNL     1       4.622   3.447   0.298  1.00  0.00     0.003 A 
HETATM   21  C   UNL     1       3.444   4.119  -0.007  1.00  0.00     0.037 A 
ENDBRANCH  15  16
ENDBRANCH  14  15
ENDBRANCH   3  14
TORSDOF 9
