REMARK  7 active torsions:
REMARK  status: ('A' for Active; 'I' for Inactive)
REMARK    1  A    between atoms: C_9  and  O_10 
REMARK    2  A    between atoms: O_10  and  C_11 
REMARK    3  A    between atoms: C_11  and  C_12 
REMARK    4  A    between atoms: C_12  and  O_13 
REMARK    5  A    between atoms: C_12  and  C_14 
REMARK    6  A    between atoms: C_14  and  O_15 
REMARK    7  A    between atoms: O_15  and  C_16 
ROOT
HETATM    1  O   UNL     1      -3.832   2.723  -0.196  1.00  0.00    -0.348 OA
ENDROOT
BRANCH   1   2
HETATM    2  C   UNL     1      -2.775   1.855  -0.160  1.00  0.00     0.071 A 
HETATM    3  C   UNL     1      -2.849   0.469  -0.256  1.00  0.00     0.075 A 
HETATM    4  C   UNL     1      -1.673  -0.287  -0.207  1.00  0.00     0.092 A 
HETATM    5  O   UNL     1      -1.838  -1.686  -0.288  1.00  0.00    -0.275 OA
HETATM    6  C   UNL     1      -0.406   0.294  -0.079  1.00  0.00     0.004 A 
HETATM    7  C   UNL     1      -0.757  -2.537  -0.221  1.00  0.00     0.288 A 
HETATM    8  C   UNL     1       0.570  -1.912  -0.120  1.00  0.00     0.090 A 
HETATM    9  O   UNL     1      -0.858  -3.759  -0.256  1.00  0.00    -0.260 OA
HETATM   10  C   UNL     1       0.772  -0.586  -0.061  1.00  0.00    -0.043 A 
HETATM   11  C   UNL     1       2.178  -0.066   0.009  1.00  0.00     0.049 C 
HETATM   12  C   UNL     1      -0.351   1.688   0.022  1.00  0.00     0.017 A 
HETATM   13  C   UNL     1      -1.523   2.457  -0.019  1.00  0.00     0.038 A 
ENDBRANCH   1   2
BRANCH   1  14
HETATM   14  C   UNL     1      -5.143   2.119  -0.151  1.00  0.00     0.209 C 
BRANCH  14  15
HETATM   15  C   UNL     1      -6.172   3.250  -0.025  1.00  0.00     0.166 C 
BRANCH  15  16
HETATM   16  O   UNL     1      -5.790   4.136   1.047  1.00  0.00    -0.391 OA
HETATM   17  H   UNL     1      -4.819   4.198   0.976  1.00  0.00     0.210 HD
ENDBRANCH  15  16
BRANCH  15  18
HETATM   18  C   UNL     1      -7.572   2.702   0.238  1.00  0.00     0.209 C 
BRANCH  18  19
HETATM   19  O   UNL     1      -8.073   2.078  -0.946  1.00  0.00    -0.345 OA
BRANCH  19  20
HETATM   20  C   UNL     1      -8.958   1.064  -0.604  1.00  0.00     0.119 A 
HETATM   21  C   UNL     1      -8.469  -0.310  -0.430  1.00  0.00     0.226 A 
HETATM   22  C   UNL     1      -9.399  -1.240  -0.136  1.00  0.00     0.192 A 
HETATM   23  O   UNL     1      -7.224  -0.448  -0.575  1.00  0.00    -0.283 OA
HETATM   24  O   UNL     1     -10.745  -1.060   0.028  1.00  0.00    -0.355 OA
HETATM   25  C   UNL     1     -11.247   0.272  -0.112  1.00  0.00     0.205 A 
HETATM   26  C   UNL     1     -10.263   1.331  -0.475  1.00  0.00     0.040 A 
ENDBRANCH  19  20
ENDBRANCH  18  19
ENDBRANCH  15  18
ENDBRANCH  14  15
ENDBRANCH   1  14
TORSDOF 7
