REMARK  4 active torsions:
REMARK  status: ('A' for Active; 'I' for Inactive)
REMARK    1  A    between atoms: C_2  and  C_3 
REMARK    2  A    between atoms: C_3  and  C_5 
REMARK    3  A    between atoms: C_5  and  N_7 
REMARK       I    between atoms: N_7  and  C_8 
REMARK    4  A    between atoms: C_8  and  S_10 
ROOT
HETATM    1  C   UNL     1       3.464   0.000   0.000  1.00  0.00     0.084 C 
HETATM    2  C   UNL     1       3.464   1.000   0.000  1.00  0.00     0.032 C 
ENDROOT
BRANCH   1   3
HETATM    3  C   UNL     1       4.445  -0.951   0.815  1.00  0.00     0.003 C 
HETATM    4  C   UNL     1       5.899  -0.435   0.808  1.00  0.00     0.012 C 
BRANCH   3   5
HETATM    5  C   UNL     1       4.464  -2.399   0.222  1.00  0.00     0.002 C 
HETATM    6  C   UNL     1       3.640  -3.411   1.005  1.00  0.00     0.005 C 
ENDBRANCH   3   5
ENDBRANCH   1   3
BRANCH   1   7
HETATM    7  N   UNL     1       2.083  -0.524   0.111  1.00  0.00    -0.347 N 
HETATM    8  C   UNL     1       1.090  -0.234  -0.784  1.00  0.00     0.279 C 
HETATM    9  O   UNL     1       1.129   0.584  -1.691  1.00  0.00    -0.260 OA
HETATM   10  H   UNL     1       1.872  -1.274   0.751  1.00  0.00     0.163 HD
BRANCH   8  11
HETATM   11  S   UNL     1      -0.304  -1.228  -0.469  1.00  0.00    -0.074 SA
HETATM   12  C   UNL     1      -1.343   0.053   0.258  1.00  0.00     0.100 C 
ENDBRANCH   8  11
ENDBRANCH   1   7
TORSDOF 4
