REMARK  6 active torsions:
REMARK  status: ('A' for Active; 'I' for Inactive)
REMARK    1  A    between atoms: S_2  and  C_3 
REMARK    2  A    between atoms: C_3  and  C_5 
REMARK    3  A    between atoms: C_5  and  O_6 
REMARK    4  A    between atoms: C_5  and  C_7 
REMARK    5  A    between atoms: C_7  and  C_8 
REMARK    6  A    between atoms: C_8  and  O_10 
ROOT
HETATM    1  C   UNL     1       2.048   1.688  -0.026  1.00  0.00     0.208 C 
ENDROOT
BRANCH   1   2
HETATM    2  C   UNL     1       3.108   0.626   0.288  1.00  0.00     0.214 C 
HETATM    3  O   UNL     1       3.859   0.697   1.254  1.00  0.00    -0.283 OA
BRANCH   2   4
HETATM    4  S   UNL     1       3.268  -0.675  -0.889  1.00  0.00    -0.094 SA
HETATM    5  C   UNL     1       2.855  -2.053   0.204  1.00  0.00     0.099 C 
ENDBRANCH   2   4
ENDBRANCH   1   2
BRANCH   1   6
HETATM    6  O   UNL     1       2.207   2.827   0.833  1.00  0.00    -0.387 OA
HETATM    7  H   UNL     1       3.159   2.897   1.044  1.00  0.00     0.210 HD
ENDBRANCH   1   6
BRANCH   1   8
HETATM    8  C   UNL     1       0.652   1.125   0.215  1.00  0.00     0.150 C 
BRANCH   8   9
HETATM    9  C   UNL     1      -0.369   1.912  -0.547  1.00  0.00     0.142 C 
HETATM   10  O   UNL     1      -0.241   2.393  -1.661  1.00  0.00    -0.650 OA
BRANCH   9  11
HETATM   11  O   UNL     1      -1.550   1.977   0.098  1.00  0.00    -0.776 OA
HETATM   12  H   UNL     1      -2.124   2.505  -0.496  1.00  0.00     0.167 HD
ENDBRANCH   9  11
ENDBRANCH   8   9
ENDBRANCH   1   8
TORSDOF 6
