REMARK  2 active torsions:
REMARK  status: ('A' for Active; 'I' for Inactive)
REMARK    1  A    between atoms: S_2  and  C_3 
REMARK    2  A    between atoms: N_5  and  C_6 
ROOT
HETATM    1  C   UNL     1       0.323  -0.867   1.058  1.00  0.00     0.072 C 
HETATM    2  C   UNL     1      -0.943  -0.483   1.473  1.00  0.00     0.033 C 
HETATM    3  C   UNL     1      -1.566   0.631   0.882  1.00  0.00     0.009 C 
HETATM    4  C   UNL     1      -0.866   1.500   0.000  1.00  0.00    -0.059 C 
HETATM    5  C   UNL     1      -0.866   2.500   0.000  1.00  0.00     0.048 C 
HETATM    6  C   UNL     1       0.340   0.954  -0.510  1.00  0.00     0.051 C 
HETATM    7  C   UNL     1       0.971  -0.140   0.077  1.00  0.00     0.143 C 
HETATM    8  F   UNL     1       2.248  -0.380  -0.235  1.00  0.00    -0.204 F 
ENDROOT
BRANCH   1   9
HETATM    9  N   UNL     1       0.917  -2.004   1.625  1.00  0.00    -0.339 N 
HETATM   10  C   UNL     1       1.349  -3.072   0.898  1.00  0.00     0.138 C 
HETATM   11  S   UNL     1       2.220  -4.295   1.632  1.00  0.00    -0.053 SA
HETATM   12  H   UNL     1       0.935  -2.101   2.635  1.00  0.00     0.167 HD
BRANCH  10  13
HETATM   13  S   UNL     1       0.820  -3.198  -0.787  1.00  0.00    -0.105 SA
HETATM   14  C   UNL     1      -0.815  -3.932  -0.533  1.00  0.00     0.098 C 
ENDBRANCH  10  13
ENDBRANCH   1   9
TORSDOF 2
