REMARK  3 active torsions:
REMARK  status: ('A' for Active; 'I' for Inactive)
REMARK    1  A    between atoms: S_2  and  C_3 
REMARK    2  A    between atoms: C_3  and  C_5 
REMARK    3  A    between atoms: C_9  and  N_10 
ROOT
HETATM    1  C   UNL     1       0.866  -0.868   0.152  1.00  0.00     0.029 C 
HETATM    2  C   UNL     1       2.014  -0.879   1.171  1.00  0.00     0.024 C 
HETATM    3  C   UNL     1       0.826  -2.227  -0.618  1.00  0.00     0.020 C 
HETATM    4  C   UNL     1      -0.588  -2.787  -0.437  1.00  0.00     0.036 C 
HETATM    5  C   UNL     1      -1.427  -1.561  -0.116  1.00  0.00     0.219 C 
HETATM    6  C   UNL     1      -0.515  -0.801   0.840  1.00  0.00     0.053 C 
ENDROOT
BRANCH   1   7
HETATM    7  C   UNL     1       1.091   0.310  -0.817  1.00  0.00     0.194 C 
HETATM    8  O   UNL     1       1.436   0.187  -1.988  1.00  0.00    -0.285 OA
BRANCH   7   9
HETATM    9  S   UNL     1       0.927   1.936  -0.131  1.00  0.00    -0.096 SA
HETATM   10  C   UNL     1       2.644   2.460  -0.295  1.00  0.00     0.098 C 
ENDBRANCH   7   9
ENDBRANCH   1   7
BRANCH   5  11
HETATM   11  N   UNL     1      -2.705  -1.894   0.485  1.00  0.00     0.083 N 
HETATM   12  H   UNL     1      -3.261  -1.046   0.600  1.00  0.00     0.313 HD
HETATM   13  H   UNL     1      -3.237  -2.496  -0.143  1.00  0.00     0.313 HD
ENDBRANCH   5  11
TORSDOF 3
