REMARK  3 active torsions:
REMARK  status: ('A' for Active; 'I' for Inactive)
REMARK    1  A    between atoms: S_2  and  C_3 
REMARK    2  A    between atoms: C_3  and  N_5 
REMARK    3  A    between atoms: N_5  and  C_6 
ROOT
HETATM    1  C   UNL     1       0.624  -0.235  -0.485  1.00  0.00     0.091 C 
HETATM    2  C   UNL     1       0.458  -1.769  -0.221  1.00  0.00     0.034 C 
HETATM    3  C   UNL     1      -1.076  -1.950  -0.182  1.00  0.00     0.010 C 
HETATM    4  C   UNL     1      -1.585  -1.291   1.076  1.00  0.00    -0.026 C 
HETATM    5  C   UNL     1      -1.444   0.033   0.915  1.00  0.00    -0.024 C 
HETATM    6  C   UNL     1      -0.851   0.255  -0.458  1.00  0.00     0.031 C 
HETATM    7  C   UNL     1      -1.530  -0.904  -1.200  1.00  0.00     0.019 C 
ENDROOT
BRANCH   1   8
HETATM    8  N   UNL     1       1.582   0.370   0.436  1.00  0.00    -0.370 N 
HETATM    9  H   UNL     1       2.307  -0.245   0.781  1.00  0.00     0.161 HD
BRANCH   8  10
HETATM   10  C   UNL     1       1.957   1.689   0.498  1.00  0.00     0.134 C 
HETATM   11  S   UNL     1       1.088   3.023   0.014  1.00  0.00    -0.053 SA
BRANCH  10  12
HETATM   12  S   UNL     1       3.561   1.751   1.211  1.00  0.00    -0.105 SA
HETATM   13  C   UNL     1       4.411   2.822   0.024  1.00  0.00     0.098 C 
ENDBRANCH  10  12
ENDBRANCH   8  10
ENDBRANCH   1   8
TORSDOF 3
