REMARK  6 active torsions:
REMARK  status: ('A' for Active; 'I' for Inactive)
REMARK    1  A    between atoms: O_2  and  C_3 
REMARK    2  A    between atoms: C_6  and  C_7 
REMARK    3  A    between atoms: C_7  and  N_9 
REMARK    4  A    between atoms: N_9  and  C_10 
REMARK    5  A    between atoms: C_10  and  O_12 
REMARK    6  A    between atoms: O_12  and  C_13 
ROOT
HETATM    1  N   UNL     1       3.998   0.110   0.069  1.00  0.00    -0.355 N 
HETATM    2  H   UNL     1       4.308   0.508  -0.805  1.00  0.00     0.162 HD
ENDROOT
BRANCH   1   3
HETATM    3  C   UNL     1       2.598  -0.500   0.000  1.00  0.00     0.097 C 
HETATM    4  C   UNL     1       2.598  -1.500   0.000  1.00  0.00     0.033 C 
BRANCH   3   5
HETATM    5  C   UNL     1       1.686   0.252   1.020  1.00  0.00     0.031 C 
HETATM    6  C   UNL     1       1.833   1.590   0.561  1.00  0.00    -0.010 C 
HETATM    7  C   UNL     1       1.266   1.769  -0.680  1.00  0.00     0.016 C 
HETATM    8  C   UNL     1       0.111   0.935  -0.865  1.00  0.00     0.134 C 
HETATM    9  C   UNL     1      -0.152  -0.335  -0.276  1.00  0.00     0.016 C 
HETATM   10  C   UNL     1       0.460  -0.465   0.953  1.00  0.00    -0.010 C 
BRANCH   8  11
HETATM   11  O   UNL     1      -0.866   1.500   0.000  1.00  0.00    -0.373 OA
HETATM   12  C   UNL     1      -0.866   2.500   0.000  1.00  0.00     0.203 C 
ENDBRANCH   8  11
ENDBRANCH   3   5
ENDBRANCH   1   3
BRANCH   1  13
HETATM   13  C   UNL     1       5.023  -0.108   0.935  1.00  0.00     0.216 C 
HETATM   14  S   UNL     1       4.983  -0.766   2.459  1.00  0.00    -0.033 SA
BRANCH  13  15
HETATM   15  O   UNL     1       6.181   0.409   0.411  1.00  0.00    -0.279 OA
BRANCH  15  16
HETATM   16  C   UNL     1       7.254  -0.494   0.261  1.00  0.00     0.146 C 
HETATM   17  C   UNL     1       7.052  -1.866  -0.278  1.00  0.00     0.186 C 
HETATM   18  C   UNL     1       8.128  -2.858   0.054  1.00  0.00     0.112 C 
HETATM   19  O   UNL     1       6.051  -2.168  -0.920  1.00  0.00    -0.290 OA
HETATM   20  C   UNL     1       9.466  -2.181  -0.163  1.00  0.00     0.182 C 
HETATM   21  O   UNL     1       9.612  -0.956   0.565  1.00  0.00    -0.360 OA
HETATM   22  C   UNL     1       8.500  -0.161   0.620  1.00  0.00     0.175 C 
ENDBRANCH  15  16
ENDBRANCH  13  15
ENDBRANCH   1  13
TORSDOF 6
