REMARK  4 active torsions:
REMARK  status: ('A' for Active; 'I' for Inactive)
REMARK    1  A    between atoms: N_4  and  C_5 
REMARK    2  A    between atoms: C_8  and  O_9 
REMARK    3  A    between atoms: C_10  and  O_11 
REMARK    4  A    between atoms: C_12  and  O_13 
ROOT
HETATM    1  C   UNL     1      -2.995  -1.985   0.309  1.00  0.00     0.273 C 
HETATM    2  O   UNL     1      -2.972  -3.265  -0.346  1.00  0.00    -0.360 OA
HETATM    3  C   UNL     1      -4.102  -4.066   0.007  1.00  0.00     0.205 C 
HETATM    4  C   UNL     1      -5.410  -3.401  -0.413  1.00  0.00     0.173 C 
HETATM    5  C   UNL     1      -5.488  -1.993   0.175  1.00  0.00     0.182 C 
HETATM    6  C   UNL     1      -4.231  -1.174  -0.140  1.00  0.00     0.199 C 
ENDROOT
BRANCH   1   7
HETATM    7  N   UNL     1      -1.730  -1.303   0.040  1.00  0.00    -0.252 N 
HETATM    8  C   UNL     1      -0.482  -1.857  -0.040  1.00  0.00     0.139 A 
HETATM    9  C   UNL     1       0.370  -0.780   0.064  1.00  0.00     0.065 A 
HETATM   10  C   UNL     1       1.842  -0.749   0.165  1.00  0.00     0.073 C 
HETATM   11  N   UNL     1      -0.368   0.372   0.133  1.00  0.00    -0.164 NA
HETATM   12  N   UNL     1      -1.651   0.043   0.117  1.00  0.00     0.007 NA
ENDBRANCH   1   7
BRANCH   6  13
HETATM   13  O   UNL     1      -4.385   0.079   0.546  1.00  0.00    -0.388 OA
HETATM   14  H   UNL     1      -3.549   0.580   0.412  1.00  0.00     0.210 HD
ENDBRANCH   6  13
BRANCH   5  15
HETATM   15  O   UNL     1      -6.653  -1.330  -0.343  1.00  0.00    -0.390 OA
HETATM   16  H   UNL     1      -6.563  -0.398  -0.054  1.00  0.00     0.210 HD
ENDBRANCH   5  15
BRANCH   4  17
HETATM   17  O   UNL     1      -6.523  -4.169   0.046  1.00  0.00    -0.391 OA
HETATM   18  H   UNL     1      -7.307  -3.605  -0.108  1.00  0.00     0.210 HD
ENDBRANCH   4  17
TORSDOF 4
