REMARK  3 active torsions:
REMARK  status: ('A' for Active; 'I' for Inactive)
REMARK    1  A    between atoms: C_2  and  N_3 
REMARK    2  A    between atoms: C_7  and  C_8 
REMARK    3  A    between atoms: C_8  and  S_9 
ROOT
HETATM    1  N   UNL     1       1.266  -0.168   0.065  1.00  0.00    -0.274 N 
HETATM    2  N   UNL     1       1.690  -1.446  -0.024  1.00  0.00    -0.185 NA
HETATM    3  C   UNL     1       0.566  -2.159  -0.085  1.00  0.00     0.141 A 
HETATM    4  C   UNL     1      -0.579  -1.351  -0.057  1.00  0.00     0.048 A 
HETATM    5  C   UNL     1      -0.110  -0.057   0.037  1.00  0.00     0.041 A 
ENDROOT
BRANCH   5   6
HETATM    6  C   UNL     1      -0.820   1.257   0.043  1.00  0.00     0.132 C 
BRANCH   6   7
HETATM    7  S   UNL     1      -2.378   1.203   0.980  1.00  0.00    -0.167 SA
HETATM    8  C   UNL     1      -3.428   2.125  -0.169  1.00  0.00     0.090 C 
ENDBRANCH   6   7
ENDBRANCH   5   6
BRANCH   1   9
HETATM    9  C   UNL     1       2.224   0.919   0.159  1.00  0.00     0.146 C 
HETATM   10  C   UNL     1       3.693   0.516   0.153  1.00  0.00     0.028 C 
ENDBRANCH   1   9
TORSDOF 3
