REMARK  2 active torsions:
REMARK  status: ('A' for Active; 'I' for Inactive)
REMARK    1  A    between atoms: N_4  and  C_5 
REMARK    2  A    between atoms: N_9  and  C_10 
ROOT
HETATM    1  C   UNL     1      -1.257  -0.753   0.055  1.00  0.00     0.764 A 
HETATM    2  N   UNL     1      -1.324  -2.080   0.001  1.00  0.00     0.061 NA
HETATM    3  N   UNL     1      -0.046  -2.597   0.087  1.00  0.00     0.059 NA
HETATM    4  C   UNL     1       0.766  -1.579   0.176  1.00  0.00     0.748 A 
HETATM    5  N   UNL     1       2.114  -1.340   0.253  1.00  0.00    -0.173 N 
HETATM    6  C   UNL     1       2.239   0.062   0.123  1.00  0.00     0.080 A 
HETATM    7  C   UNL     1       3.351   0.879   0.121  1.00  0.00     0.032 A 
HETATM    8  C   UNL     1       3.178   2.262  -0.027  1.00  0.00     0.002 A 
HETATM    9  C   UNL     1       1.899   2.819  -0.191  1.00  0.00     0.002 A 
HETATM   10  C   UNL     1       0.761   2.014  -0.182  1.00  0.00     0.034 A 
HETATM   11  C   UNL     1       0.952   0.663   0.018  1.00  0.00     0.103 A 
HETATM   12  N   UNL     1       0.059  -0.400   0.095  1.00  0.00     0.033 N 
ENDROOT
BRANCH   1  13
HETATM   13  N   UNL     1      -2.386   0.044   0.059  1.00  0.00    -0.074 N 
HETATM   14  C   UNL     1      -2.602   1.375   0.314  1.00  0.00     0.161 A 
HETATM   15  C   UNL     1      -3.927   1.588  -0.000  1.00  0.00     0.066 A 
HETATM   16  C   UNL     1      -4.710   2.838  -0.013  1.00  0.00     0.073 C 
HETATM   17  N   UNL     1      -4.504   0.395  -0.314  1.00  0.00    -0.163 NA
HETATM   18  N   UNL     1      -3.573  -0.544  -0.231  1.00  0.00     0.024 NA
ENDBRANCH   1  13
BRANCH   5  19
HETATM   19  C   UNL     1       3.062  -2.326  -0.324  1.00  0.00     0.100 C 
HETATM   20  C   UNL     1       2.692  -3.769   0.068  1.00  0.00     0.033 C 
HETATM   21  C   UNL     1       4.511  -2.104   0.117  1.00  0.00     0.033 C 
ENDBRANCH   5  19
TORSDOF 2
