REMARK  2 active torsions:
REMARK  status: ('A' for Active; 'I' for Inactive)
REMARK    1  A    between atoms: S_2  and  C_3 
REMARK    2  A    between atoms: C_3  and  C_4 
ROOT
HETATM    1  C   UNL     1      -0.301  -0.702   0.290  1.00  0.00    -0.001 C 
HETATM    2  C   UNL     1      -0.561  -2.060  -0.390  1.00  0.00     0.006 C 
HETATM    3  C   UNL     1      -1.830  -2.739   0.125  1.00  0.00     0.008 C 
HETATM    4  C   UNL     1      -3.057  -1.855  -0.020  1.00  0.00     0.078 C 
HETATM    5  C   UNL     1      -2.797  -0.516   0.621  1.00  0.00     0.127 C 
HETATM    6  O   UNL     1      -3.617   0.017   1.368  1.00  0.00    -0.298 OA
HETATM    7  C   UNL     1      -1.544   0.200   0.180  1.00  0.00     0.083 C 
ENDROOT
BRANCH   1   8
HETATM    8  C   UNL     1       0.886   0.051  -0.347  1.00  0.00     0.044 C 
BRANCH   8   9
HETATM    9  S   UNL     1       2.598  -0.500   0.000  1.00  0.00    -0.294 SA
HETATM   10  C   UNL     1       2.598  -1.500   0.000  1.00  0.00     0.247 C 
ENDBRANCH   8   9
ENDBRANCH   1   8
TORSDOF 2
