REMARK  4 active torsions:
REMARK  status: ('A' for Active; 'I' for Inactive)
REMARK    1  A    between atoms: N_4  and  C_5 
REMARK    2  A    between atoms: C_5  and  C_6 
REMARK    3  A    between atoms: C_6  and  C_8 
REMARK    4  A    between atoms: C_12  and  N_13 
ROOT
HETATM    1  C   UNL     1      -2.908   3.740  -0.432  1.00  0.00     0.014 A 
HETATM    2  C   UNL     1      -3.131   2.633  -1.259  1.00  0.00     0.015 A 
HETATM    3  C   UNL     1      -4.411   2.078  -1.361  1.00  0.00     0.003 A 
HETATM    4  C   UNL     1      -5.483   2.661  -0.685  1.00  0.00     0.036 A 
HETATM    5  C   UNL     1      -5.268   3.809   0.088  1.00  0.00     0.103 A 
HETATM    6  C   UNL     1      -3.983   4.351   0.223  1.00  0.00     0.051 A 
ENDROOT
BRANCH   1   7
HETATM    7  C   UNL     1      -1.559   4.340  -0.262  1.00  0.00     0.178 C 
HETATM    8  O   UNL     1      -1.455   5.539  -0.515  1.00  0.00    -0.290 OA
BRANCH   7   9
HETATM    9  C   UNL     1      -0.437   3.579   0.414  1.00  0.00     0.230 C 
BRANCH   9  10
HETATM   10  N   UNL     1      -0.392   2.167   0.117  1.00  0.00    -0.276 N 
HETATM   11  C   UNL     1      -1.069   1.151   0.727  1.00  0.00     0.136 A 
HETATM   12  C   UNL     1      -0.888   0.085  -0.127  1.00  0.00     0.065 A 
HETATM   13  C   UNL     1      -1.528  -1.243  -0.137  1.00  0.00     0.073 C 
HETATM   14  N   UNL     1      -0.026   0.451  -1.125  1.00  0.00    -0.164 NA
HETATM   15  N   UNL     1       0.286   1.728  -0.955  1.00  0.00     0.005 NA
ENDBRANCH   9  10
ENDBRANCH   7   9
ENDBRANCH   1   7
BRANCH   5  16
HETATM   16  N   UNL     1      -6.403   4.453   0.761  1.00  0.00    -0.116 N 
HETATM   17  O   UNL     1      -6.204   5.551   1.299  1.00  0.00    -0.532 OA
HETATM   18  O   UNL     1      -7.488   3.856   0.757  1.00  0.00    -0.532 OA
ENDBRANCH   5  16
TORSDOF 4
