REMARK  3 active torsions:
REMARK  status: ('A' for Active; 'I' for Inactive)
REMARK    1  A    between atoms: N_4  and  C_5 
REMARK    2  A    between atoms: C_5  and  C_6 
REMARK    3  A    between atoms: C_9  and  C_10 
ROOT
HETATM    1  C   UNL     1      -4.416   1.127   0.019  1.00  0.00     0.073 A 
HETATM    2  C   UNL     1      -4.760  -0.125   0.495  1.00  0.00     0.037 A 
HETATM    3  C   UNL     1      -6.172  -0.197   0.469  1.00  0.00     0.043 A 
HETATM    4  C   UNL     1      -6.620   1.025   0.023  1.00  0.00     0.113 A 
HETATM    5  O   UNL     1      -5.556   1.837  -0.257  1.00  0.00    -0.310 OA
ENDROOT
BRANCH   1   6
HETATM    6  C   UNL     1      -3.143   1.860  -0.231  1.00  0.00     0.211 C 
BRANCH   6   7
HETATM    7  N   UNL     1      -1.962   1.031  -0.076  1.00  0.00    -0.277 N 
HETATM    8  C   UNL     1      -1.690  -0.199  -0.606  1.00  0.00     0.136 C 
HETATM    9  C   UNL     1      -0.597  -0.623   0.116  1.00  0.00     0.065 C 
HETATM   10  C   UNL     1       0.038  -1.951   0.210  1.00  0.00     0.073 C 
HETATM   11  N   UNL     1      -0.147   0.409   0.895  1.00  0.00    -0.164 NA
HETATM   12  N   UNL     1      -0.975   1.430   0.746  1.00  0.00     0.005 NA
ENDBRANCH   6   7
ENDBRANCH   1   6
BRANCH   4  13
HETATM   13  C   UNL     1      -7.942   1.550  -0.177  1.00  0.00     0.295 C 
HETATM   14  O   UNL     1      -8.982   0.914  -0.018  1.00  0.00    -0.299 OA
ENDBRANCH   4  13
TORSDOF 3
