REMARK  5 active torsions:
REMARK  status: ('A' for Active; 'I' for Inactive)
REMARK    1  A    between atoms: S_2  and  C_3 
REMARK    2  A    between atoms: C_3  and  C_5 
REMARK    3  A    between atoms: C_5  and  N_6 
REMARK    4  A    between atoms: C_5  and  C_7 
REMARK    5  A    between atoms: C_7  and  C_8 
ROOT
HETATM    1  C   UNL     1       0.723   1.599   0.124  1.00  0.00     0.295 C 
ENDROOT
BRANCH   1   2
HETATM    2  C   UNL     1       2.094   2.268   0.444  1.00  0.00     0.188 C 
HETATM    3  O   UNL     1       2.147   3.422   0.875  1.00  0.00    -0.286 OA
BRANCH   2   4
HETATM    4  S   UNL     1       3.598   1.500   0.000  1.00  0.00    -0.230 SA
HETATM    5  C   UNL     1       3.598   0.500   0.000  1.00  0.00     0.270 C 
ENDBRANCH   2   4
ENDBRANCH   1   2
BRANCH   1   6
HETATM    6  N   UNL     1      -0.327   2.312   0.897  1.00  0.00     0.090 N 
HETATM    7  H   UNL     1      -0.124   3.316   0.859  1.00  0.00     0.313 HD
HETATM    8  H   UNL     1      -1.229   2.178   0.443  1.00  0.00     0.313 HD
ENDBRANCH   1   6
BRANCH   1   9
HETATM    9  C   UNL     1       0.648   0.087   0.395  1.00  0.00     0.048 C 
BRANCH   9  10
HETATM   10  C   UNL     1      -0.745  -0.481   0.463  1.00  0.00    -0.012 A 
HETATM   11  C   UNL     1      -1.666  -0.490  -0.731  1.00  0.00     0.005 A 
HETATM   12  C   UNL     1      -1.055  -1.775  -0.247  1.00  0.00     0.005 A 
ENDBRANCH   9  10
ENDBRANCH   1   9
TORSDOF 5
