REMARK  7 active torsions:
REMARK  status: ('A' for Active; 'I' for Inactive)
REMARK    1  A    between atoms: C_2  and  N_3 
REMARK    2  A    between atoms: N_3  and  C_4 
REMARK    3  A    between atoms: C_4  and  C_5 
REMARK    4  A    between atoms: C_5  and  C_6 
REMARK    5  A    between atoms: C_6  and  C_7 
REMARK    6  A    between atoms: C_7  and  O_8 
REMARK    7  A    between atoms: O_8  and  C_9 
ROOT
HETATM    1  C   UNL     1       3.273   1.009  -0.289  1.00  0.00     0.032 C 
ENDROOT
BRANCH   1   2
HETATM    2  C   UNL     1       4.426   0.005  -0.243  1.00  0.00     0.269 C 
BRANCH   2   3
HETATM    3  N   UNL     1       5.702   0.638  -0.583  1.00  0.00     0.083 NA
HETATM    4  H   UNL     1       5.698   1.624  -0.323  1.00  0.00     0.315 HD
BRANCH   3   5
HETATM    5  C   UNL     1       6.928   0.000   0.000  1.00  0.00     0.265 C 
HETATM    6  C   UNL     1       6.928  -1.000   0.000  1.00  0.00     0.037 C 
ENDBRANCH   3   5
ENDBRANCH   2   3
ENDBRANCH   1   2
BRANCH   1   7
HETATM    7  C   UNL     1       1.954   0.290  -0.012  1.00  0.00     0.028 C 
BRANCH   7   8
HETATM    8  C   UNL     1       0.803   1.253   0.238  1.00  0.00     0.178 C 
BRANCH   8   9
HETATM    9  O   UNL     1      -0.359   0.458   0.521  1.00  0.00    -0.328 OA
BRANCH   9  10
HETATM   10  C   UNL     1      -1.554   1.045   0.297  1.00  0.00     0.398 C 
HETATM   11  O   UNL     1      -2.627   0.487   0.476  1.00  0.00    -0.276 OA
ENDBRANCH   9  10
ENDBRANCH   8   9
ENDBRANCH   7   8
ENDBRANCH   1   7
TORSDOF 7
