REMARK  3 active torsions:
REMARK  status: ('A' for Active; 'I' for Inactive)
REMARK    1  A    between atoms: C_4  and  C_5 
REMARK    2  A    between atoms: C_5  and  O_6 
REMARK    3  A    between atoms: O_6  and  C_7 
ROOT
HETATM    1  C   UNL     1       1.848   0.788  -0.377  1.00  0.00     0.010 C 
HETATM    2  C   UNL     1       0.869  -0.245   0.068  1.00  0.00    -0.012 A 
HETATM    3  C   UNL     1       0.028  -0.977  -0.992  1.00  0.00     0.012 A 
HETATM    4  C   UNL     1      -0.589  -0.062   0.070  1.00  0.00     0.014 A 
ENDROOT
BRANCH   4   5
HETATM    5  C   UNL     1      -1.315   1.162  -0.393  1.00  0.00     0.183 C 
BRANCH   5   6
HETATM    6  O   UNL     1      -2.542   0.738  -1.010  1.00  0.00    -0.328 OA
BRANCH   6   7
HETATM    7  C   UNL     1      -3.692   1.121  -0.413  1.00  0.00     0.398 C 
HETATM    8  O   UNL     1      -3.813   1.808   0.589  1.00  0.00    -0.276 OA
ENDBRANCH   6   7
ENDBRANCH   5   6
ENDBRANCH   4   5
TORSDOF 3
