REMARK  3 active torsions:
REMARK  status: ('A' for Active; 'I' for Inactive)
REMARK       I    between atoms: C_2  and  N_4 
REMARK    1  A    between atoms: N_4  and  C_5 
REMARK    2  A    between atoms: C_5  and  O_6 
REMARK    3  A    between atoms: O_6  and  C_7 
ROOT
HETATM    1  C   UNL     1       4.330  -1.500   0.000  1.00  0.00     0.117 C 
HETATM    2  C   UNL     1       4.330  -0.500   0.000  1.00  0.00     0.215 C 
HETATM    3  O   UNL     1       5.296   0.254  -0.149  1.00  0.00    -0.274 OA
HETATM    4  N   UNL     1       3.120   0.132   0.160  1.00  0.00    -0.340 N 
HETATM    5  H   UNL     1       3.158   1.143   0.126  1.00  0.00     0.164 HD
ENDROOT
BRANCH   4   6
HETATM    6  C   UNL     1       1.818  -0.481   0.193  1.00  0.00     0.303 C 
BRANCH   6   7
HETATM    7  O   UNL     1       0.871   0.568   0.249  1.00  0.00    -0.309 OA
BRANCH   7   8
HETATM    8  C   UNL     1      -0.410   0.160   0.123  1.00  0.00     0.399 C 
HETATM    9  O   UNL     1      -1.369   0.916   0.123  1.00  0.00    -0.276 OA
ENDBRANCH   7   8
ENDBRANCH   6   7
ENDBRANCH   4   6
TORSDOF 3
