REMARK  8 active torsions:
REMARK  status: ('A' for Active; 'I' for Inactive)
REMARK    1  A    between atoms: S_2  and  C_3 
REMARK    2  A    between atoms: C_3  and  C_4 
REMARK    3  A    between atoms: C_3  and  C_6 
REMARK    4  A    between atoms: C_4  and  O_5 
REMARK    5  A    between atoms: C_6  and  C_7 
REMARK    6  A    between atoms: C_7  and  N_8 
REMARK    7  A    between atoms: C_10  and  C_11 
REMARK    8  A    between atoms: C_11  and  C_12 
ROOT
HETATM    1  N   UNL     1      -0.791   0.400   0.307  1.00  0.00    -0.283 N 
HETATM    2  C   UNL     1       0.238   1.199   0.733  1.00  0.00     0.136 A 
HETATM    3  C   UNL     1       1.219   0.981  -0.204  1.00  0.00     0.069 A 
HETATM    4  N   UNL     1       0.805   0.011  -1.082  1.00  0.00    -0.163 NA
HETATM    5  N   UNL     1      -0.425  -0.353  -0.738  1.00  0.00     0.004 NA
ENDROOT
BRANCH   1   6
HETATM    6  C   UNL     1      -2.202   0.552   0.633  1.00  0.00     0.147 C 
BRANCH   6   7
HETATM    7  C   UNL     1      -2.714   1.825  -0.042  1.00  0.00     0.038 C 
BRANCH   7   8
HETATM    8  C   UNL     1      -4.172   2.223   0.203  1.00  0.00     0.072 C 
BRANCH   8   9
HETATM    9  S   UNL     1      -4.580   3.697  -0.858  1.00  0.00    -0.167 SA
HETATM   10  C   UNL     1      -3.330   4.888  -0.298  1.00  0.00     0.090 C 
ENDBRANCH   8   9
BRANCH   8  11
HETATM   11  C   UNL     1      -5.228   1.125  -0.048  1.00  0.00     0.179 C 
BRANCH  11  12
HETATM   12  O   UNL     1      -4.731   0.061  -0.849  1.00  0.00    -0.400 OA
HETATM   13  H   UNL     1      -5.399  -0.646  -0.842  1.00  0.00     0.209 HD
ENDBRANCH  11  12
ENDBRANCH   8  11
ENDBRANCH   7   8
ENDBRANCH   6   7
ENDBRANCH   1   6
BRANCH   3  14
HETATM   14  C   UNL     1       2.526   1.654  -0.408  1.00  0.00     0.066 C 
BRANCH  14  15
HETATM   15  C   UNL     1       3.680   1.131   0.471  1.00  0.00    -0.009 C 
HETATM   16  C   UNL     1       3.769  -0.407   0.546  1.00  0.00     0.005 C 
HETATM   17  C   UNL     1       4.746  -0.968  -0.471  1.00  0.00     0.000 C 
HETATM   18  C   UNL     1       6.161  -0.509  -0.136  1.00  0.00     0.000 C 
HETATM   19  C   UNL     1       6.246   0.958   0.293  1.00  0.00     0.000 C 
HETATM   20  C   UNL     1       4.996   1.767  -0.036  1.00  0.00     0.005 C 
ENDBRANCH  14  15
ENDBRANCH   3  14
TORSDOF 8
