REMARK  3 active torsions:
REMARK  status: ('A' for Active; 'I' for Inactive)
REMARK    1  A    between atoms: C_2  and  O_3 
REMARK    2  A    between atoms: O_3  and  C_4 
REMARK    3  A    between atoms: C_4  and  C_5 
ROOT
HETATM    1  C   UNL     1       1.069   0.492  -0.432  1.00  0.00     0.013 C 
HETATM    2  C   UNL     1       2.218  -0.327   0.158  1.00  0.00     0.009 C 
HETATM    3  C   UNL     1       1.727  -1.776   0.166  1.00  0.00     0.037 C 
HETATM    4  C   UNL     1       0.229  -1.722  -0.111  1.00  0.00     0.170 C 
HETATM    5  F   UNL     1      -0.446  -2.477   0.787  1.00  0.00    -0.249 F 
HETATM    6  C   UNL     1      -0.171  -0.267   0.034  1.00  0.00     0.044 C 
ENDROOT
BRANCH   1   7
HETATM    7  C   UNL     1       1.096   1.963  -0.016  1.00  0.00     0.182 C 
BRANCH   7   8
HETATM    8  O   UNL     1      -0.231   2.504  -0.130  1.00  0.00    -0.328 OA
BRANCH   8   9
HETATM    9  C   UNL     1      -0.323   3.832   0.103  1.00  0.00     0.398 C 
HETATM   10  O   UNL     1       0.603   4.601   0.314  1.00  0.00    -0.276 OA
ENDBRANCH   8   9
ENDBRANCH   7   8
ENDBRANCH   1   7
TORSDOF 3
