REMARK  13 active torsions:
REMARK  status: ('A' for Active; 'I' for Inactive)
REMARK    1  A    between atoms: C_2  and  C_4 
REMARK    2  A    between atoms: C_4  and  C_5 
REMARK    3  A    between atoms: C_5  and  C_7 
REMARK    4  A    between atoms: C_7  and  O_8 
REMARK    5  A    between atoms: C_7  and  C_19 
REMARK    6  A    between atoms: O_8  and  C_9 
REMARK    7  A    between atoms: C_19  and  C_21 
REMARK    8  A    between atoms: C_21  and  C_22 
REMARK    9  A    between atoms: C_21  and  C_25 
REMARK   10  A    between atoms: C_22  and  C_23 
REMARK   11  A    between atoms: C_23  and  O_24 
REMARK   12  A    between atoms: C_25  and  C_27 
REMARK   13  A    between atoms: C_32  and  O_33 
ROOT
HETATM    1  C   UNL     1      -3.210   1.250   0.640  1.00  0.00     0.268 C 
ENDROOT
BRANCH   1   2
HETATM    2  C   UNL     1      -3.276   1.795  -0.797  1.00  0.00     0.170 C 
HETATM    3  O   UNL     1      -3.620   1.060  -1.729  1.00  0.00    -0.294 OA
BRANCH   2   4
HETATM    4  C   UNL     1      -2.767   3.186  -1.143  1.00  0.00     0.159 C 
BRANCH   4   5
HETATM    5  C   UNL     1      -2.717   4.258  -0.092  1.00  0.00     0.130 C 
HETATM    6  C   UNL     1      -1.420   4.993   0.131  1.00  0.00     0.091 C 
HETATM    7  O   UNL     1      -3.698   4.561   0.582  1.00  0.00    -0.298 OA
ENDBRANCH   4   5
ENDBRANCH   2   4
ENDBRANCH   1   2
BRANCH   1   8
HETATM    8  O   UNL     1      -4.344   0.552   1.174  1.00  0.00    -0.330 OA
BRANCH   8   9
HETATM    9  C   UNL     1      -5.493   1.313   1.168  1.00  0.00     0.083 C 
HETATM   10  C   UNL     1      -6.703   0.804   0.651  1.00  0.00     0.026 A 
HETATM   11  C   UNL     1      -7.694   1.716   0.273  1.00  0.00     0.051 A 
HETATM   12  C   UNL     1      -7.221  -0.494   0.373  1.00  0.00     0.033 A 
HETATM   13  C   UNL     1      -7.558   3.103   0.447  1.00  0.00    -0.034 C 
HETATM   14  N   UNL     1      -8.714   0.991  -0.301  1.00  0.00    -0.365 N 
HETATM   15  C   UNL     1      -6.498   3.510   1.266  1.00  0.00     0.012 C 
HETATM   16  C   UNL     1      -8.469   4.119  -0.164  1.00  0.00     0.050 C 
HETATM   17  C   UNL     1      -5.498   2.622   1.646  1.00  0.00     0.038 C 
HETATM   18  C   UNL     1      -8.470  -0.349  -0.182  1.00  0.00     0.089 A 
HETATM   19  H   UNL     1      -9.556   1.397  -0.684  1.00  0.00     0.165 HD
ENDBRANCH   8   9
ENDBRANCH   1   8
BRANCH   1  20
HETATM   20  C   UNL     1      -1.997   0.357   0.885  1.00  0.00     0.175 C 
HETATM   21  O   UNL     1      -1.210   0.711   1.781  1.00  0.00    -0.294 OA
BRANCH  20  22
HETATM   22  C   UNL     1      -1.649  -0.910   0.092  1.00  0.00     0.135 C 
BRANCH  22  23
HETATM   23  C   UNL     1      -2.707  -1.729  -0.667  1.00  0.00     0.046 C 
BRANCH  23  24
HETATM   24  C   UNL     1      -3.972  -2.092   0.088  1.00  0.00     0.165 C 
BRANCH  24  25
HETATM   25  O   UNL     1      -4.370  -3.414  -0.264  1.00  0.00    -0.401 OA
HETATM   26  H   UNL     1      -5.256  -3.555   0.105  1.00  0.00     0.209 HD
ENDBRANCH  24  25
ENDBRANCH  23  24
ENDBRANCH  22  23
BRANCH  22  27
HETATM   27  C   UNL     1      -0.421  -0.776  -0.824  1.00  0.00     0.173 C 
HETATM   28  O   UNL     1      -0.253  -1.466  -1.832  1.00  0.00    -0.291 OA
BRANCH  27  29
HETATM   29  C   UNL     1       0.758   0.014  -0.418  1.00  0.00     0.044 A 
HETATM   30  C   UNL     1       1.955  -0.650  -0.139  1.00  0.00     0.079 A 
HETATM   31  C   UNL     1       3.080   0.068   0.252  1.00  0.00     0.037 A 
HETATM   32  C   UNL     1       3.024   1.462   0.314  1.00  0.00     0.003 A 
HETATM   33  C   UNL     1       1.850   2.132  -0.025  1.00  0.00     0.001 A 
HETATM   34  C   UNL     1       0.718   1.408  -0.403  1.00  0.00     0.018 A 
BRANCH  30  35
HETATM   35  O   UNL     1       2.090  -2.006  -0.259  1.00  0.00    -0.360 OA
HETATM   36  H   UNL     1       1.427  -2.315  -0.913  1.00  0.00     0.217 HD
ENDBRANCH  30  35
ENDBRANCH  27  29
ENDBRANCH  22  27
ENDBRANCH  20  22
ENDBRANCH   1  20
TORSDOF 13
