REMARK  6 active torsions:
REMARK  status: ('A' for Active; 'I' for Inactive)
REMARK    1  A    between atoms: N_4  and  C_5 
REMARK    2  A    between atoms: C_5  and  C_6 
REMARK    3  A    between atoms: C_6  and  CA_7 
REMARK    4  A    between atoms: CA_7  and  N_8 
REMARK    5  A    between atoms: CA_7  and  C_9 
REMARK    6  A    between atoms: C_9  and  OXT_11 
ROOT
HETATM    1  C   UNL     1       3.377  -2.714  -0.159  1.00  0.00     0.068 C 
ENDROOT
BRANCH   1   2
HETATM    2  C   UNL     1       1.894  -2.867   0.119  1.00  0.00     0.148 C 
BRANCH   2   3
HETATM    3  N   UNL     1       1.248  -1.565   0.071  1.00  0.00    -0.283 N 
HETATM    4  C   UNL     1       1.819  -0.332   0.169  1.00  0.00     0.136 A 
HETATM    5  C   UNL     1       0.809   0.588   0.000  1.00  0.00     0.065 A 
HETATM    6  C   UNL     1       0.809   1.588   0.000  1.00  0.00     0.073 C 
HETATM    7  N   UNL     1      -0.362  -0.180  -0.083  1.00  0.00    -0.164 NA
HETATM    8  N   UNL     1      -0.073  -1.470  -0.057  1.00  0.00     0.004 NA
ENDBRANCH   2   3
ENDBRANCH   1   2
BRANCH   1   9
HETATM    9  CA  UNL     1       4.274  -3.886   0.181  1.00  0.00     0.316 C 
BRANCH   9  10
HETATM   10  N   UNL     1       3.944  -5.061  -0.633  1.00  0.00     0.093 N 
HETATM   11  H1  UNL     1       3.106  -5.516  -0.274  1.00  0.00     0.314 HD
HETATM   12  H2  UNL     1       4.701  -5.743  -0.523  1.00  0.00     0.314 HD
ENDBRANCH   9  10
BRANCH   9  13
HETATM   13  C   UNL     1       5.733  -3.472  -0.037  1.00  0.00     0.173 C 
HETATM   14  O   UNL     1       6.669  -4.239  -0.221  1.00  0.00    -0.648 OA
BRANCH  13  15
HETATM   15  OXT UNL     1       5.978  -2.150   0.063  1.00  0.00    -0.775 OA
HETATM   16  HXT UNL     1       6.938  -2.043  -0.105  1.00  0.00     0.167 HD
ENDBRANCH  13  15
ENDBRANCH   9  13
ENDBRANCH   1   9
TORSDOF 6
