REMARK  7 active torsions:
REMARK  status: ('A' for Active; 'I' for Inactive)
REMARK    1  A    between atoms: O_2  and  C_3 
REMARK    2  A    between atoms: C_3  and  C_5 
REMARK    3  A    between atoms: C_5  and  S_6 
REMARK    4  A    between atoms: C_5  and  C_8 
REMARK    5  A    between atoms: C_8  and  O_9 
REMARK    6  A    between atoms: C_8  and  C_10 
REMARK    7  A    between atoms: C_16  and  O_17 
ROOT
HETATM    1  C   UNL     1       0.642  -0.343  -1.169  1.00  0.00     0.174 C 
ENDROOT
BRANCH   1   2
HETATM    2  C   UNL     1       2.102   0.226  -1.281  1.00  0.00     0.149 C 
BRANCH   2   3
HETATM    3  C   UNL     1       1.999   1.690  -1.315  1.00  0.00     0.272 C 
HETATM    4  O   UNL     1       2.192   2.430  -2.270  1.00  0.00    -0.264 OA
BRANCH   3   5
HETATM    5  O   UNL     1       1.732   2.000   0.000  1.00  0.00    -0.326 OA
HETATM    6  C   UNL     1       1.732   3.000   0.000  1.00  0.00     0.213 C 
ENDBRANCH   3   5
ENDBRANCH   2   3
BRANCH   2   7
HETATM    7  S   UNL     1       3.464   0.000   0.000  1.00  0.00    -0.279 SA
HETATM    8  C   UNL     1       3.464  -1.000   0.000  1.00  0.00     0.250 C 
ENDBRANCH   2   7
ENDBRANCH   1   2
BRANCH   1   9
HETATM    9  O   UNL     1      -0.002   0.083  -2.405  1.00  0.00    -0.389 OA
HETATM   10  H   UNL     1      -0.951   0.229  -2.243  1.00  0.00     0.210 HD
ENDBRANCH   1   9
BRANCH   1  11
HETATM   11  C   UNL     1      -0.456  -0.199  -0.085  1.00  0.00     0.007 C 
HETATM   12  C   UNL     1      -1.470  -1.172  -0.059  1.00  0.00     0.077 C 
HETATM   13  C   UNL     1      -2.775  -0.909   0.404  1.00  0.00     0.039 C 
HETATM   14  C   UNL     1      -3.071   0.323   0.974  1.00  0.00     0.026 C 
HETATM   15  C   UNL     1      -2.041   1.217   1.173  1.00  0.00     0.034 C 
HETATM   16  C   UNL     1      -0.754   0.938   0.687  1.00  0.00     0.036 C 
HETATM   17 CL   UNL     1      -2.340   2.718   1.968  1.00  0.00    -0.084 Cl
BRANCH  12  18
HETATM   18  O   UNL     1      -1.228  -2.452  -0.502  1.00  0.00    -0.355 OA
HETATM   19  C   UNL     1      -0.346  -3.100   0.426  1.00  0.00     0.210 C 
ENDBRANCH  12  18
ENDBRANCH   1  11
TORSDOF 7
