REMARK  8 active torsions:
REMARK  status: ('A' for Active; 'I' for Inactive)
REMARK    1  A    between atoms: C_2  and  C_3 
REMARK    2  A    between atoms: C_3  and  C_4 
REMARK    3  A    between atoms: C_4  and  O_5 
REMARK    4  A    between atoms: O_5  and  C_6 
REMARK    5  A    between atoms: C_6  and  C_8 
REMARK    6  A    between atoms: C_8  and  C_9 
REMARK    7  A    between atoms: C_9  and  S_10 
REMARK    8  A    between atoms: S_10  and  C_11 
ROOT
HETATM    1  C   UNL     1       1.953   0.647  -0.287  1.00  0.00     0.259 C 
HETATM    2  O   UNL     1       0.946   1.128  -0.801  1.00  0.00    -0.265 OA
ENDROOT
BRANCH   1   3
HETATM    3  O   UNL     1       3.103   1.369  -0.214  1.00  0.00    -0.321 OA
BRANCH   3   4
HETATM    4  C   UNL     1       4.346   0.708   0.051  1.00  0.00     0.178 C 
BRANCH   4   5
HETATM    5  C   UNL     1       5.520   1.653  -0.230  1.00  0.00     0.026 C 
BRANCH   5   6
HETATM    6  C   UNL     1       6.928   1.000   0.000  1.00  0.00    -0.002 C 
HETATM    7  C   UNL     1       6.928   0.000   0.000  1.00  0.00     0.005 C 
ENDBRANCH   5   6
ENDBRANCH   4   5
ENDBRANCH   3   4
ENDBRANCH   1   3
BRANCH   1   8
HETATM    8  C   UNL     1       1.986  -0.753   0.300  1.00  0.00     0.121 C 
BRANCH   8   9
HETATM    9  C   UNL     1       0.719  -1.546  -0.004  1.00  0.00     0.091 C 
BRANCH   9  10
HETATM   10  S   UNL     1      -0.633  -1.156   1.144  1.00  0.00    -0.101 SA
BRANCH  10  11
HETATM   11  C   UNL     1      -1.949  -1.917   0.266  1.00  0.00     0.304 C 
HETATM   12  O   UNL     1      -3.048  -2.085   0.778  1.00  0.00    -0.295 OA
ENDBRANCH  10  11
ENDBRANCH   9  10
ENDBRANCH   8   9
ENDBRANCH   1   8
TORSDOF 8
