REMARK  3 active torsions:
REMARK  status: ('A' for Active; 'I' for Inactive)
REMARK    1  A    between atoms: N_4  and  C_5 
REMARK    2  A    between atoms: C_5  and  C_6 
REMARK       I    between atoms: C_6  and  N_8 
REMARK    3  A    between atoms: N_8  and  C_9 
ROOT
HETATM    1  C   UNL     1      -4.003   1.389   0.125  1.00  0.00     0.241 C 
HETATM    2  O   UNL     1      -5.017   2.068   0.293  1.00  0.00    -0.271 OA
HETATM    3  N   UNL     1      -3.994   0.073  -0.307  1.00  0.00    -0.326 N 
HETATM    4  H   UNL     1      -3.116  -0.306  -0.647  1.00  0.00     0.169 HD
ENDROOT
BRANCH   3   5
HETATM    5  C   UNL     1      -5.067  -0.840  -0.326  1.00  0.00     0.037 A 
HETATM    6  C   UNL     1      -6.379  -0.504  -0.013  1.00  0.00     0.069 A 
HETATM    7  C   UNL     1      -7.365  -1.489  -0.033  1.00  0.00     0.104 A 
HETATM    8  C   UNL     1      -7.047  -2.821  -0.309  1.00  0.00     0.102 A 
HETATM    9  O   UNL     1      -8.651  -1.073   0.222  1.00  0.00    -0.346 OA
HETATM   10  C   UNL     1      -5.735  -3.163  -0.611  1.00  0.00     0.042 A 
HETATM   11  O   UNL     1      -7.968  -3.834  -0.325  1.00  0.00    -0.346 OA
HETATM   12  C   UNL     1      -4.751  -2.172  -0.636  1.00  0.00     0.032 A 
HETATM   13  C   UNL     1      -9.245  -3.417   0.174  1.00  0.00     0.202 C 
HETATM   14  C   UNL     1      -9.593  -2.016  -0.299  1.00  0.00     0.202 C 
ENDBRANCH   3   5
BRANCH   1  15
HETATM   15  C   UNL     1      -2.654   1.977   0.525  1.00  0.00     0.248 C 
BRANCH  15  16
HETATM   16  N   UNL     1      -1.522   1.146   0.179  1.00  0.00    -0.274 N 
HETATM   17  C   UNL     1      -1.100   0.007   0.809  1.00  0.00     0.136 A 
HETATM   18  C   UNL     1      -0.341  -0.633  -0.147  1.00  0.00     0.065 A 
HETATM   19  C   UNL     1       0.241  -1.988  -0.160  1.00  0.00     0.073 C 
HETATM   20  N   UNL     1      -0.249   0.168  -1.252  1.00  0.00    -0.164 NA
HETATM   21  N   UNL     1      -0.973   1.256  -1.041  1.00  0.00     0.005 NA
ENDBRANCH  15  16
ENDBRANCH   1  15
TORSDOF 3
