REMARK  1 active torsions:
REMARK  status: ('A' for Active; 'I' for Inactive)
REMARK    1  A    between atoms: N_3  and  C_4 
ROOT
HETATM    1  N   UNL     1       4.271  -0.926   0.392  1.00  0.00     0.068 N 
HETATM    2  N   UNL     1       3.364  -0.440  -0.099  1.00  0.00    -0.162 NA
HETATM    3  N   UNL     1       2.379   0.084  -0.650  1.00  0.00    -0.067 NA
ENDROOT
BRANCH   3   4
HETATM    4  C   UNL     1       1.160  -0.412  -0.243  1.00  0.00     0.160 C 
HETATM    5  C   UNL     1      -0.029   0.508  -0.335  1.00  0.00     0.184 C 
HETATM    6  C   UNL     1      -1.346   0.001   0.193  1.00  0.00     0.112 C 
HETATM    7  O   UNL     1       0.081   1.661  -0.752  1.00  0.00    -0.290 OA
HETATM    8  C   UNL     1      -1.418  -1.486  -0.056  1.00  0.00     0.182 C 
HETATM    9  O   UNL     1      -0.324  -2.173   0.557  1.00  0.00    -0.360 OA
HETATM   10  C   UNL     1       0.900  -1.646   0.228  1.00  0.00     0.172 C 
ENDBRANCH   3   4
TORSDOF 1
