REMARK  6 active torsions:
REMARK  status: ('A' for Active; 'I' for Inactive)
REMARK    1  A    between atoms: C_2  and  CA_3 
REMARK    2  A    between atoms: CA_3  and  N_4 
REMARK    3  A    between atoms: CA_3  and  C_9 
REMARK    4  A    between atoms: N_4  and  C_5 
REMARK    5  A    between atoms: C_5  and  S_7 
REMARK    6  A    between atoms: C_9  and  OXT_11 
ROOT
HETATM    1  CA  UNL     1       0.592  -0.996   1.173  1.00  0.00     0.180 C 
ENDROOT
BRANCH   1   2
HETATM    2  C   UNL     1      -0.237  -2.040   0.412  1.00  0.00     0.031 C 
HETATM    3  C   UNL     1      -1.372  -1.442  -0.399  1.00  0.00     0.007 C 
ENDBRANCH   1   2
BRANCH   1   4
HETATM    4  N   UNL     1       1.810  -1.630   1.702  1.00  0.00    -0.361 N 
HETATM    5  H   UNL     1       1.733  -2.071   2.619  1.00  0.00     0.162 HD
BRANCH   4   6
HETATM    6  C   UNL     1       2.953  -1.942   1.014  1.00  0.00     0.134 C 
HETATM    7  S   UNL     1       4.099  -2.927   1.721  1.00  0.00    -0.053 SA
BRANCH   6   8
HETATM    8  S   UNL     1       3.126  -1.324  -0.612  1.00  0.00    -0.105 SA
HETATM    9  C   UNL     1       3.880   0.279  -0.264  1.00  0.00     0.098 C 
ENDBRANCH   6   8
ENDBRANCH   4   6
ENDBRANCH   1   4
BRANCH   1  10
HETATM   10  C   UNL     1      -0.167  -0.321   2.333  1.00  0.00     0.163 C 
HETATM   11  O   UNL     1      -0.029  -0.534   3.525  1.00  0.00    -0.648 OA
BRANCH  10  12
HETATM   12  OXT UNL     1      -1.022   0.633   1.885  1.00  0.00    -0.775 OA
HETATM   13  HXT UNL     1      -1.381   1.058   2.691  1.00  0.00     0.167 HD
ENDBRANCH  10  12
ENDBRANCH   1  10
TORSDOF 6
