REMARK  6 active torsions:
REMARK  status: ('A' for Active; 'I' for Inactive)
REMARK    1  A    between atoms: C_2  and  C_3 
REMARK    2  A    between atoms: C_8  and  O_9 
REMARK    3  A    between atoms: O_9  and  C_10 
REMARK    4  A    between atoms: C_10  and  C_12 
REMARK    5  A    between atoms: C_12  and  S_13 
REMARK    6  A    between atoms: S_13  and  C_14 
ROOT
HETATM    1  C   UNL     1       0.764  -1.050   0.307  1.00  0.00    -0.025 A 
HETATM    2  C   UNL     1       0.773  -2.393  -0.106  1.00  0.00     0.010 A 
HETATM    3  C   UNL     1      -0.283  -3.251   0.215  1.00  0.00     0.001 A 
HETATM    4  C   UNL     1      -1.352  -2.792   0.978  1.00  0.00     0.003 A 
HETATM    5  C   UNL     1      -1.390  -1.458   1.380  1.00  0.00     0.037 A 
HETATM    6  C   UNL     1      -0.372  -0.581   0.988  1.00  0.00     0.075 A 
ENDROOT
BRANCH   6   7
HETATM    7  O   UNL     1      -0.589   0.762   1.230  1.00  0.00    -0.345 OA
BRANCH   7   8
HETATM    8  C   UNL     1      -0.866   1.500   0.000  1.00  0.00     0.134 C 
HETATM    9  C   UNL     1      -0.866   2.500   0.000  1.00  0.00     0.041 C 
BRANCH   8  10
HETATM   10  C   UNL     1      -2.227   0.985  -0.664  1.00  0.00     0.113 C 
BRANCH  10  11
HETATM   11  S   UNL     1      -3.805   1.436   0.167  1.00  0.00    -0.099 SA
BRANCH  11  12
HETATM   12  C   UNL     1      -4.048   3.053  -0.496  1.00  0.00     0.304 C 
HETATM   13  O   UNL     1      -3.352   3.515  -1.387  1.00  0.00    -0.295 OA
ENDBRANCH  11  12
ENDBRANCH  10  11
ENDBRANCH   8  10
ENDBRANCH   7   8
ENDBRANCH   6   7
BRANCH   1  14
HETATM   14  C   UNL     1       1.917  -0.134  -0.048  1.00  0.00     0.037 C 
HETATM   15  C   UNL     1       3.290  -0.675   0.314  1.00  0.00     0.010 C 
ENDBRANCH   1  14
TORSDOF 6
