REMARK  3 active torsions:
REMARK  status: ('A' for Active; 'I' for Inactive)
REMARK    1  A    between atoms: S_2  and  C_3 
REMARK       I    between atoms: C_3  and  N_5 
REMARK    2  A    between atoms: N_5  and  C_6 
REMARK    3  A    between atoms: C_8  and  C_9 
ROOT
HETATM    1  C   UNL     1       0.041  -0.935  -0.113  1.00  0.00     0.160 A 
HETATM    2  N   UNL     1      -1.300  -0.699  -0.144  1.00  0.00    -0.210 NA
HETATM    3  C   UNL     1      -1.493   0.614  -0.051  1.00  0.00     0.147 A 
HETATM    4  N   UNL     1      -0.246   1.258   0.003  1.00  0.00    -0.302 N 
HETATM    5  C   UNL     1       0.117   2.612   0.047  1.00  0.00     0.099 A 
HETATM    6  C   UNL     1       1.408   2.979   0.057  1.00  0.00     0.018 A 
HETATM    7  C   UNL     1       2.425   1.955   0.037  1.00  0.00     0.004 A 
HETATM    8  C   UNL     1       2.103   0.652   0.004  1.00  0.00     0.034 A 
HETATM    9  C   UNL     1       0.735   0.246  -0.019  1.00  0.00     0.086 A 
ENDROOT
BRANCH   1  10
HETATM   10  N   UNL     1       0.407  -2.251  -0.234  1.00  0.00    -0.300 N 
HETATM   11  C   UNL     1       1.642  -2.811  -0.097  1.00  0.00     0.285 C 
HETATM   12  O   UNL     1       2.676  -2.282   0.273  1.00  0.00    -0.260 OA
HETATM   13  H   UNL     1      -0.371  -2.849  -0.453  1.00  0.00     0.171 HD
BRANCH  11  14
HETATM   14  S   UNL     1       1.682  -4.507  -0.574  1.00  0.00    -0.073 SA
HETATM   15  C   UNL     1       0.194  -5.203   0.160  1.00  0.00     0.100 C 
ENDBRANCH  11  14
ENDBRANCH   1  10
BRANCH   3  16
HETATM   16  C   UNL     1      -2.877   1.177  -0.028  1.00  0.00     0.010 A 
HETATM   17  C   UNL     1      -3.225   2.530  -0.055  1.00  0.00     0.015 A 
HETATM   18  C   UNL     1      -4.568   2.948  -0.035  1.00  0.00     0.001 A 
HETATM   19  C   UNL     1      -5.597   2.016   0.002  1.00  0.00     0.000 A 
HETATM   20  C   UNL     1      -5.285   0.665   0.023  1.00  0.00     0.001 A 
HETATM   21  C   UNL     1      -3.945   0.256   0.011  1.00  0.00     0.015 A 
ENDBRANCH   3  16
TORSDOF 3
