REMARK  2 active torsions:
REMARK  status: ('A' for Active; 'I' for Inactive)
REMARK    1  A    between atoms: S_2  and  C_3 
REMARK    2  A    between atoms: C_3  and  C_5 
ROOT
HETATM    1  C   UNL     1      -0.637  -0.932   0.059  1.00  0.00     0.273 C 
HETATM    2  O   UNL     1      -0.504  -2.005  -0.522  1.00  0.00    -0.277 OA
ENDROOT
BRANCH   1   3
HETATM    3  S   UNL     1      -2.011  -0.723   1.165  1.00  0.00    -0.089 SA
HETATM    4  C   UNL     1      -3.032   0.328   0.107  1.00  0.00     0.099 C 
ENDBRANCH   1   3
BRANCH   1   5
HETATM    5  C   UNL     1       0.229   0.313  -0.159  1.00  0.00     0.391 C 
HETATM    6  F   UNL     1       0.202   1.179   0.896  1.00  0.00    -0.178 F 
HETATM    7  F   UNL     1      -0.211   1.035  -1.232  1.00  0.00    -0.178 F 
HETATM    8 CL   UNL     1       1.917  -0.163  -0.445  1.00  0.00    -0.039 Cl
ENDBRANCH   1   5
TORSDOF 2
