REMARK  16 active torsions:
REMARK  status: ('A' for Active; 'I' for Inactive)
REMARK    1  A    between atoms: C_5  and  O_6 
REMARK    2  A    between atoms: C_5  and  C_7 
REMARK    3  A    between atoms: C_5  and  C_15 
REMARK    4  A    between atoms: C_8  and  C_9 
REMARK    5  A    between atoms: C_9  and  O_10 
REMARK    6  A    between atoms: O_10  and  C_11 
REMARK    7  A    between atoms: C_11  and  C_13 
REMARK    8  A    between atoms: C_13  and  O_14 
REMARK    9  A    between atoms: C_15  and  O_16 
REMARK   10  A    between atoms: C_15  and  C_17 
REMARK   11  A    between atoms: C_17  and  C_19 
REMARK   12  A    between atoms: C_19  and  C_20 
REMARK   13  A    between atoms: C_19  and  C_23 
REMARK   14  A    between atoms: C_20  and  C_21 
REMARK   15  A    between atoms: C_21  and  O_22 
REMARK   16  A    between atoms: C_23  and  C_25 
ROOT
HETATM    1  C   UNL     1       2.777  -2.530  -0.157  1.00  0.00     0.230 C 
ENDROOT
BRANCH   1   2
HETATM    2  C   UNL     1       4.330  -1.500   0.000  1.00  0.00     0.129 A 
HETATM    3  C   UNL     1       3.830  -0.634   0.000  1.00  0.00     0.115 A 
HETATM    4  C   UNL     1       4.330   0.232   0.000  1.00  0.00     0.107 A 
HETATM    5  C   UNL     1       5.330   0.232   0.000  1.00  0.00     0.094 A 
HETATM    6  O   UNL     1       3.722   1.328  -0.020  1.00  0.00    -0.302 OA
BRANCH   2   7
HETATM    7  O   UNL     1       4.499  -1.527   1.679  1.00  0.00    -0.379 OA
HETATM    8  H   UNL     1       5.438  -1.337   1.875  1.00  0.00     0.211 HD
ENDBRANCH   2   7
BRANCH   2   9
HETATM    9  C   UNL     1       4.830  -2.366   0.000  1.00  0.00     0.016 C 
HETATM   10  C   UNL     1       5.936  -2.699  -0.728  1.00  0.00    -0.001 C 
BRANCH  10  11
HETATM   11  C   UNL     1       6.610  -4.039  -0.603  1.00  0.00     0.206 C 
BRANCH  11  12
HETATM   12  O   UNL     1       8.007  -3.833  -0.274  1.00  0.00    -0.316 OA
BRANCH  12  13
HETATM   13  C   UNL     1       8.811  -4.898   0.010  1.00  0.00     0.282 C 
HETATM   14  O   UNL     1      10.016  -4.739   0.161  1.00  0.00    -0.263 OA
BRANCH  13  15
HETATM   15  C   UNL     1       8.112  -6.268   0.135  1.00  0.00     0.275 C 
BRANCH  15  16
HETATM   16  O   UNL     1       8.973  -7.381   0.374  1.00  0.00    -0.391 OA
HETATM   17  H   UNL     1       8.497  -8.175   0.093  1.00  0.00     0.210 HD
ENDBRANCH  15  16
ENDBRANCH  13  15
ENDBRANCH  12  13
ENDBRANCH  11  12
ENDBRANCH  10  11
ENDBRANCH   2   9
ENDBRANCH   1   2
BRANCH   1  18
HETATM   18  O   UNL     1       3.067  -3.907  -0.588  1.00  0.00    -0.384 OA
HETATM   19  H   UNL     1       2.735  -4.496   0.112  1.00  0.00     0.210 HD
ENDBRANCH   1  18
BRANCH   1  20
HETATM   20  C   UNL     1       1.565  -2.105  -1.074  1.00  0.00     0.170 C 
HETATM   21  O   UNL     1       1.757  -1.586  -2.177  1.00  0.00    -0.294 OA
BRANCH  20  22
HETATM   22  C   UNL     1       0.136  -2.515  -0.626  1.00  0.00     0.135 C 
BRANCH  22  23
HETATM   23  C   UNL     1       0.211  -3.977  -0.124  1.00  0.00     0.046 C 
BRANCH  23  24
HETATM   24  C   UNL     1      -1.065  -4.789  -0.086  1.00  0.00     0.165 C 
BRANCH  24  25
HETATM   25  O   UNL     1      -0.663  -6.136   0.206  1.00  0.00    -0.401 OA
HETATM   26  H   UNL     1      -1.438  -6.700   0.048  1.00  0.00     0.209 HD
ENDBRANCH  24  25
ENDBRANCH  23  24
ENDBRANCH  22  23
BRANCH  22  27
HETATM   27  C   UNL     1      -0.485  -1.600   0.431  1.00  0.00     0.174 C 
HETATM   28  O   UNL     1      -0.771  -2.021   1.555  1.00  0.00    -0.291 OA
BRANCH  27  29
HETATM   29  C   UNL     1      -0.592  -0.134   0.156  1.00  0.00     0.060 A 
HETATM   30  C   UNL     1      -1.749   0.491  -0.364  1.00  0.00     0.185 A 
HETATM   31  C   UNL     1      -1.647   1.900  -0.458  1.00  0.00     0.056 A 
HETATM   32  O   UNL     1      -2.810  -0.132  -0.715  1.00  0.00    -0.287 OA
HETATM   33  C   UNL     1      -0.491   2.637  -0.137  1.00  0.00     0.004 A 
HETATM   34  C   UNL     1       0.611   1.977   0.356  1.00  0.00     0.001 A 
HETATM   35  C   UNL     1       0.528   0.608   0.555  1.00  0.00     0.019 A 
ENDBRANCH  27  29
ENDBRANCH  22  27
ENDBRANCH  20  22
ENDBRANCH   1  20
TORSDOF 16
