REMARK  2 active torsions:
REMARK  status: ('A' for Active; 'I' for Inactive)
REMARK    1  A    between atoms: C_2  and  O_3 
REMARK    2  A    between atoms: O_3  and  C_4 
ROOT
HETATM    1  C   UNL     1       0.000  -1.000   0.000  1.00  0.00     0.128 A 
HETATM    2  C   UNL     1      -0.343   0.389  -0.536  1.00  0.00     0.034 C 
HETATM    3  C   UNL     1       1.000   0.000   0.000  1.00  0.00     0.029 A 
HETATM    4  C   UNL     1       1.000  -1.000   0.000  1.00  0.00     0.009 A 
HETATM    5  C   UNL     1       2.000  -1.000   0.000  1.00  0.00     0.088 A 
HETATM    6  N   UNL     1       2.292  -2.278   0.632  1.00  0.00    -0.323 N 
HETATM    7  C   UNL     1       1.000  -2.000   0.000  1.00  0.00     0.115 A 
HETATM    8  H   UNL     1       2.907  -2.887   0.092  1.00  0.00     0.121 HD
ENDROOT
BRANCH   1   9
HETATM    9  O   UNL     1      -1.033  -1.906  -0.741  1.00  0.00    -0.323 OA
BRANCH   9  10
HETATM   10  C   UNL     1      -2.331  -1.891  -0.281  1.00  0.00     0.398 C 
HETATM   11  O   UNL     1      -2.893  -0.976   0.298  1.00  0.00    -0.276 OA
ENDBRANCH   9  10
ENDBRANCH   1   9
TORSDOF 2
