REMARK  6 active torsions:
REMARK  status: ('A' for Active; 'I' for Inactive)
REMARK    1  A    between atoms: O_2  and  C_3 
REMARK    2  A    between atoms: C_3  and  C_5 
REMARK    3  A    between atoms: C_5  and  C_6 
REMARK    4  A    between atoms: C_9  and  N_10 
REMARK    5  A    between atoms: N_10  and  C_11 
REMARK    6  A    between atoms: C_11  and  S_13 
ROOT
HETATM    1  C   UNL     1      -0.082   1.650   0.527  1.00  0.00    -0.049 A 
HETATM    2  C   UNL     1       0.300   0.636  -0.359  1.00  0.00     0.010 A 
HETATM    3  C   UNL     1      -0.565  -0.416  -0.653  1.00  0.00     0.030 A 
HETATM    4  C   UNL     1      -1.830  -0.464  -0.077  1.00  0.00     0.033 A 
HETATM    5  C   UNL     1      -2.273   0.613   0.693  1.00  0.00     0.030 A 
HETATM    6  C   UNL     1      -1.397   1.656   1.010  1.00  0.00     0.010 A 
ENDROOT
BRANCH   4   7
HETATM    7  N   UNL     1      -2.710  -1.542  -0.260  1.00  0.00    -0.344 N 
HETATM    8  H   UNL     1      -3.698  -1.337  -0.155  1.00  0.00     0.167 HD
BRANCH   7   9
HETATM    9  C   UNL     1      -2.462  -2.888  -0.406  1.00  0.00     0.107 C 
HETATM   10  S   UNL     1      -3.790  -3.849  -0.801  1.00  0.00    -0.056 SA
BRANCH   9  11
HETATM   11  S   UNL     1      -0.866  -3.500   0.000  1.00  0.00    -0.239 SA
HETATM   12  C   UNL     1      -0.866  -4.500   0.000  1.00  0.00     0.268 C 
ENDBRANCH   9  11
ENDBRANCH   7   9
ENDBRANCH   4   7
BRANCH   1  13
HETATM   13  C   UNL     1       0.885   2.738   0.933  1.00  0.00     0.149 C 
BRANCH  13  14
HETATM   14  C   UNL     1       2.262   2.212   1.297  1.00  0.00     0.262 C 
HETATM   15  O   UNL     1       2.598   1.874   2.424  1.00  0.00    -0.265 OA
BRANCH  14  16
HETATM   16  O   UNL     1       3.039   2.119   0.181  1.00  0.00    -0.326 OA
HETATM   17  C   UNL     1       4.279   1.437   0.371  1.00  0.00     0.213 C 
ENDBRANCH  14  16
ENDBRANCH  13  14
ENDBRANCH   1  13
TORSDOF 6
