REMARK  3 active torsions:
REMARK  status: ('A' for Active; 'I' for Inactive)
REMARK    1  A    between atoms: S_2  and  C_3 
REMARK    2  A    between atoms: C_3  and  C_5 
REMARK    3  A    between atoms: N_8  and  C_9 
ROOT
HETATM    1  C   UNL     1      -0.078  -0.483  -0.884  1.00  0.00     0.162 C 
HETATM    2  C   UNL     1      -0.057   0.825  -0.033  1.00  0.00     0.053 C 
HETATM    3  C   UNL     1       1.297   0.344   0.510  1.00  0.00     0.120 C 
HETATM    4  N   UNL     1       1.000  -1.000   0.000  1.00  0.00    -0.397 N 
ENDROOT
BRANCH   1   5
HETATM    5  C   UNL     1      -1.428  -1.295  -0.984  1.00  0.00     0.208 C 
HETATM    6  O   UNL     1      -1.848  -1.858  -1.991  1.00  0.00    -0.283 OA
BRANCH   5   7
HETATM    7  S   UNL     1      -2.445  -1.290   0.468  1.00  0.00    -0.095 SA
HETATM    8  C   UNL     1      -3.628  -0.037  -0.073  1.00  0.00     0.099 C 
ENDBRANCH   5   7
ENDBRANCH   1   5
BRANCH   4   9
HETATM    9  C   UNL     1       1.707  -1.707   0.000  1.00  0.00     0.071 C 
HETATM   10  C   UNL     1       0.825  -3.057  -0.157  1.00  0.00     0.031 C 
HETATM   11  C   UNL     1       2.595  -1.382  -1.343  1.00  0.00     0.031 C 
ENDBRANCH   4   9
TORSDOF 3
