REMARK  5 active torsions:
REMARK  status: ('A' for Active; 'I' for Inactive)
REMARK    1  A    between atoms: C_2  and  O_3 
REMARK    2  A    between atoms: O_3  and  C_4 
REMARK    3  A    between atoms: C_4  and  C_6 
REMARK    4  A    between atoms: C_7  and  C_8 
REMARK    5  A    between atoms: C_8  and  S_10 
ROOT
HETATM    1  C   UNL     1       2.560   1.992  -1.158  1.00  0.00     0.086 C 
HETATM    2  C   UNL     1       2.328   0.908  -1.914  1.00  0.00     0.068 C 
ENDROOT
BRANCH   1   3
HETATM    3  C   UNL     1       3.904   2.588  -1.174  1.00  0.00     0.282 C 
HETATM    4  O   UNL     1       4.126   3.772  -0.998  1.00  0.00    -0.260 OA
BRANCH   3   5
HETATM    5  O   UNL     1       4.844   1.617  -1.278  1.00  0.00    -0.319 OA
BRANCH   5   6
HETATM    6  C   UNL     1       5.196   1.000   0.000  1.00  0.00     0.174 C 
HETATM    7  C   UNL     1       5.196   0.000   0.000  1.00  0.00     0.034 C 
ENDBRANCH   5   6
ENDBRANCH   3   5
ENDBRANCH   1   3
BRANCH   2   8
HETATM    8  C   UNL     1       1.098   0.134  -1.721  1.00  0.00     0.208 C 
HETATM    9  O   UNL     1       0.232   0.040  -2.576  1.00  0.00    -0.281 OA
BRANCH   8  10
HETATM   10  S   UNL     1       1.061  -0.731  -0.200  1.00  0.00    -0.093 SA
HETATM   11  C   UNL     1      -0.481  -0.065   0.450  1.00  0.00     0.099 C 
ENDBRANCH   8  10
ENDBRANCH   2   8
TORSDOF 5
