REMARK  13 active torsions:
REMARK  status: ('A' for Active; 'I' for Inactive)
REMARK    1  A    between atoms: C_2  and  C_4 
REMARK    2  A    between atoms: C_4  and  C_5 
REMARK    3  A    between atoms: C_5  and  C_7 
REMARK    4  A    between atoms: C_7  and  O_8 
REMARK    5  A    between atoms: C_7  and  C_9 
REMARK    6  A    between atoms: C_9  and  C_11 
REMARK    7  A    between atoms: C_11  and  C_12 
REMARK    8  A    between atoms: C_11  and  C_25 
REMARK    9  A    between atoms: C_12  and  C_13 
REMARK   10  A    between atoms: C_13  and  O_14 
REMARK   11  A    between atoms: O_14  and  C_15 
REMARK   12  A    between atoms: C_18  and  C_19 
REMARK   13  A    between atoms: C_25  and  C_27 
ROOT
HETATM    1  C   UNL     1      -2.115  -0.631   0.418  1.00  0.00     0.135 C 
ENDROOT
BRANCH   1   2
HETATM    2  C   UNL     1      -2.462   0.818   0.838  1.00  0.00     0.174 C 
HETATM    3  O   UNL     1      -1.933   1.354   1.817  1.00  0.00    -0.294 OA
BRANCH   2   4
HETATM    4  C   UNL     1      -3.619   1.529   0.105  1.00  0.00     0.258 C 
BRANCH   4   5
HETATM    5  C   UNL     1      -3.283   2.862  -0.539  1.00  0.00     0.169 C 
HETATM    6  O   UNL     1      -2.148   3.177  -0.902  1.00  0.00    -0.294 OA
BRANCH   5   7
HETATM    7  C   UNL     1      -4.447   3.773  -0.843  1.00  0.00     0.159 C 
BRANCH   7   8
HETATM    8  C   UNL     1      -4.610   4.878   0.159  1.00  0.00     0.130 C 
HETATM    9  C   UNL     1      -3.445   5.811   0.369  1.00  0.00     0.091 C 
HETATM   10  O   UNL     1      -5.698   5.100   0.696  1.00  0.00    -0.298 OA
ENDBRANCH   7   8
ENDBRANCH   5   7
ENDBRANCH   4   5
BRANCH   4  11
HETATM   11  O   UNL     1      -4.714   1.724   1.008  1.00  0.00    -0.380 OA
HETATM   12  H   UNL     1      -4.786   0.937   1.576  1.00  0.00     0.211 HD
ENDBRANCH   4  11
ENDBRANCH   2   4
ENDBRANCH   1   2
BRANCH   1  13
HETATM   13  C   UNL     1      -3.438  -1.309   0.012  1.00  0.00     0.047 C 
BRANCH  13  14
HETATM   14  C   UNL     1      -3.630  -2.814   0.052  1.00  0.00     0.177 C 
BRANCH  14  15
HETATM   15  O   UNL     1      -4.833  -3.252  -0.657  1.00  0.00    -0.348 OA
BRANCH  15  16
HETATM   16  C   UNL     1      -5.961  -2.484  -0.508  1.00  0.00     0.107 A 
HETATM   17  C   UNL     1      -6.213  -1.381  -1.336  1.00  0.00     0.150 A 
HETATM   18  C   UNL     1      -7.354  -0.600  -1.181  1.00  0.00     0.061 A 
HETATM   19  F   UNL     1      -5.354  -1.035  -2.301  1.00  0.00    -0.203 F 
HETATM   20  C   UNL     1      -8.330  -0.965  -0.251  1.00  0.00     0.029 A 
HETATM   21  C   UNL     1      -8.125  -2.117   0.528  1.00  0.00     0.019 A 
HETATM   22  C   UNL     1      -6.940  -2.867   0.404  1.00  0.00     0.041 A 
BRANCH  20  23
HETATM   23  C   UNL     1      -9.570  -0.124  -0.161  1.00  0.00     0.252 C 
HETATM   24  O   UNL     1      -9.569   0.948  -0.748  1.00  0.00    -0.274 OA
HETATM   25 CL   UNL     1     -10.954  -0.720   0.738  1.00  0.00    -0.038 Cl
ENDBRANCH  20  23
ENDBRANCH  15  16
ENDBRANCH  14  15
ENDBRANCH  13  14
ENDBRANCH   1  13
BRANCH   1  26
HETATM   26  C   UNL     1      -1.125  -0.608  -0.743  1.00  0.00     0.174 C 
HETATM   27  O   UNL     1      -1.455  -0.897  -1.896  1.00  0.00    -0.291 OA
BRANCH  26  28
HETATM   28  C   UNL     1       0.210  -0.002  -0.498  1.00  0.00     0.060 A 
HETATM   29  C   UNL     1       1.171  -0.631   0.328  1.00  0.00     0.185 A 
HETATM   30  C   UNL     1       2.358   0.121   0.484  1.00  0.00     0.056 A 
HETATM   31  O   UNL     1       1.015  -1.769   0.889  1.00  0.00    -0.287 OA
HETATM   32  C   UNL     1       2.565   1.388  -0.092  1.00  0.00     0.004 A 
HETATM   33  C   UNL     1       1.587   1.957  -0.889  1.00  0.00     0.001 A 
HETATM   34  C   UNL     1       0.416   1.247  -1.115  1.00  0.00     0.019 A 
ENDBRANCH  26  28
ENDBRANCH   1  26
TORSDOF 13
