REMARK  4 active torsions:
REMARK  status: ('A' for Active; 'I' for Inactive)
REMARK    1  A    between atoms: S_2  and  C_3 
REMARK    2  A    between atoms: C_3  and  O_4 
REMARK    3  A    between atoms: O_4  and  C_5 
REMARK    4  A    between atoms: C_5  and  C_6 
ROOT
HETATM    1  C   UNL     1      -0.549  -0.562  -0.197  1.00  0.00    -0.035 A 
HETATM    2  C   UNL     1      -0.274  -1.935  -0.154  1.00  0.00     0.009 A 
HETATM    3  C   UNL     1      -1.285  -2.856   0.127  1.00  0.00     0.001 A 
HETATM    4  C   UNL     1      -2.587  -2.416   0.355  1.00  0.00     0.000 A 
HETATM    5  C   UNL     1      -2.879  -1.055   0.305  1.00  0.00     0.001 A 
HETATM    6  C   UNL     1      -1.866  -0.133   0.034  1.00  0.00     0.009 A 
ENDROOT
BRANCH   1   7
HETATM    7  C   UNL     1       0.506   0.471  -0.517  1.00  0.00     0.207 C 
BRANCH   7   8
HETATM    8  O   UNL     1       1.798  -0.092  -0.737  1.00  0.00    -0.379 OA
BRANCH   8   9
HETATM    9  C   UNL     1       2.620  -0.051   0.422  1.00  0.00     0.208 C 
BRANCH   9  10
HETATM   10  S   UNL     1       4.330  -0.500   0.000  1.00  0.00    -0.273 SA
HETATM   11  C   UNL     1       4.330  -1.500   0.000  1.00  0.00     0.253 C 
ENDBRANCH   9  10
ENDBRANCH   8   9
ENDBRANCH   7   8
ENDBRANCH   1   7
TORSDOF 4
