REMARK  2 active torsions:
REMARK  status: ('A' for Active; 'I' for Inactive)
REMARK    1  A    between atoms: C_7  and  N_8 
REMARK    2  A    between atoms: N_8  and  C_9 
ROOT
HETATM    1  C   UNL     1       1.808   1.615  -0.000  1.00  0.00     0.015 C 
HETATM    2  C   UNL     1       1.000   0.000   0.000  1.00  0.00    -0.038 A 
HETATM    3  C   UNL     1       2.504  -0.684   0.000  1.00  0.00     0.015 C 
HETATM    4  C   UNL     1       0.500  -0.866   0.000  1.00  0.00     0.021 A 
HETATM    5  C   UNL     1       0.000   0.000   0.000  1.00  0.00    -0.011 A 
HETATM    6  C   UNL     1      -0.500   0.866   0.000  1.00  0.00     0.050 A 
HETATM    7  C   UNL     1      -1.000   0.000   0.000  1.00  0.00     0.589 A 
ENDROOT
BRANCH   7   8
HETATM    8  N   UNL     1      -1.826  -1.636   0.000  1.00  0.00    -0.071 N 
HETATM    9  H   UNL     1      -1.354  -2.539   0.000  1.00  0.00     0.268 HD
BRANCH   8  10
HETATM   10  C   UNL     1      -3.293  -1.791   0.000  1.00  0.00     0.438 C 
HETATM   11  O   UNL     1      -4.104  -0.868  -0.000  1.00  0.00    -0.277 OA
ENDBRANCH   8  10
ENDBRANCH   7   8
TORSDOF 2
