REMARK  3 active torsions:
REMARK  status: ('A' for Active; 'I' for Inactive)
REMARK    1  A    between atoms: C_6  and  C_7 
REMARK    2  A    between atoms: C_11  and  S_12 
REMARK    3  A    between atoms: S_12  and  C_13 
ROOT
HETATM    1  C   UNL     1       0.657  -1.301  -0.000  1.00  0.00    -0.006 A 
HETATM    2  C   UNL     1       0.769  -2.702   0.000  1.00  0.00     0.014 A 
HETATM    3  C   UNL     1      -0.365  -3.536   0.000  1.00  0.00     0.002 A 
HETATM    4  C   UNL     1      -1.663  -2.997   0.000  1.00  0.00     0.019 A 
HETATM    5  C   UNL     1      -1.819  -1.625   0.000  1.00  0.00     0.008 A 
HETATM    6  C   UNL     1      -0.658  -0.825   0.000  1.00  0.00     0.032 A 
ENDROOT
BRANCH   1   7
HETATM    7  C   UNL     1       1.871  -0.416  -0.004  1.00  0.00     0.063 A 
HETATM    8  N   UNL     1       2.009   0.980  -0.009  1.00  0.00    -0.344 N 
HETATM    9  C   UNL     1       1.129   2.060   0.042  1.00  0.00     0.157 C 
HETATM   10  C   UNL     1       3.365   1.252  -0.003  1.00  0.00     0.209 A 
HETATM   11  N   UNL     1       4.097   0.187  -0.001  1.00  0.00    -0.254 NA
HETATM   12  C   UNL     1       3.199  -0.848  -0.002  1.00  0.00     0.148 A 
ENDBRANCH   1   7
BRANCH   5  13
HETATM   13  S   UNL     1      -3.302  -0.635   0.000  1.00  0.00    -0.062 SA
BRANCH  13  14
HETATM   14  C   UNL     1      -4.698  -1.656  -0.000  1.00  0.00     0.309 C 
HETATM   15  O   UNL     1      -5.823  -1.167   0.000  1.00  0.00    -0.295 OA
ENDBRANCH  13  14
ENDBRANCH   5  13
TORSDOF 3
