REMARK  4 active torsions:
REMARK  status: ('A' for Active; 'I' for Inactive)
REMARK    1  A    between atoms: C_7  and  O_8 
REMARK    2  A    between atoms: C_7  and  C_9 
REMARK    3  A    between atoms: C_9  and  C_10 
REMARK    4  A    between atoms: C_15  and  O_16 
ROOT
HETATM    1  O   UNL     1       4.555   0.901   0.671  1.00  0.00    -0.294 OA
HETATM    2  C   UNL     1       4.117  -0.186   0.273  1.00  0.00     0.165 C 
HETATM    3  C   UNL     1       5.015  -1.400   0.241  1.00  0.00     0.108 C 
HETATM    4  C   UNL     1       4.305  -2.738   0.125  1.00  0.00     0.175 C 
HETATM    5  O   UNL     1       2.902  -2.647  -0.064  1.00  0.00    -0.387 OA
HETATM    6  C   UNL     1       2.547  -1.622  -0.984  1.00  0.00     0.213 C 
HETATM    7  C   UNL     1       2.711  -0.251  -0.328  1.00  0.00     0.144 C 
ENDROOT
BRANCH   7   8
HETATM    8  O   UNL     1       2.630   0.780  -1.331  1.00  0.00    -0.379 OA
HETATM    9  H   UNL     1       3.181   1.522  -1.004  1.00  0.00     0.211 HD
ENDBRANCH   7   8
BRANCH   7  10
HETATM   10  C   UNL     1       1.723   0.092   0.807  1.00  0.00     0.110 C 
BRANCH  10  11
HETATM   11  C   UNL     1       0.310  -0.387   0.595  1.00  0.00     0.070 A 
HETATM   12  C   UNL     1      -0.684   0.355  -0.047  1.00  0.00     0.090 A 
HETATM   13  C   UNL     1      -1.950  -0.208  -0.201  1.00  0.00     0.040 A 
HETATM   14  C   UNL     1      -2.195  -1.489   0.276  1.00  0.00     0.022 A 
HETATM   15  C   UNL     1      -1.163  -2.158   0.903  1.00  0.00     0.117 A 
HETATM   16  N   UNL     1       0.070  -1.632   1.075  1.00  0.00    -0.263 NA
BRANCH  12  17
HETATM   17  O   UNL     1      -0.528   1.615  -0.542  1.00  0.00    -0.359 OA
HETATM   18  H   UNL     1       0.409   1.874  -0.504  1.00  0.00     0.217 HD
ENDBRANCH  12  17
ENDBRANCH  10  11
ENDBRANCH   7  10
TORSDOF 4
