REMARK  5 active torsions:
REMARK  status: ('A' for Active; 'I' for Inactive)
REMARK    1  A    between atoms: S_2  and  C_3 
REMARK    2  A    between atoms: C_3  and  N_5 
REMARK    3  A    between atoms: N_5  and  C_6 
REMARK    4  A    between atoms: C_11  and  O_12 
REMARK    5  A    between atoms: O_12  and  C_13 
ROOT
HETATM    1  C   UNL     1       0.749  -0.907   0.058  1.00  0.00     0.067 A 
HETATM    2  C   UNL     1       2.043  -1.405  -0.128  1.00  0.00     0.032 A 
HETATM    3  C   UNL     1       2.260  -2.778  -0.263  1.00  0.00     0.002 A 
HETATM    4  C   UNL     1       1.190  -3.660  -0.173  1.00  0.00     0.003 A 
HETATM    5  C   UNL     1      -0.099  -3.179   0.064  1.00  0.00     0.039 A 
HETATM    6  C   UNL     1      -0.330  -1.802   0.185  1.00  0.00     0.101 A 
ENDROOT
BRANCH   1   7
HETATM    7  N   UNL     1       0.620   0.492   0.207  1.00  0.00    -0.340 N 
HETATM    8  H   UNL     1       1.362   0.958   0.714  1.00  0.00     0.167 HD
BRANCH   7   9
HETATM    9  C   UNL     1      -0.364   1.322  -0.278  1.00  0.00     0.138 C 
HETATM   10  S   UNL     1      -1.390   1.067  -1.574  1.00  0.00    -0.053 SA
BRANCH   9  11
HETATM   11  S   UNL     1      -0.333   2.846   0.594  1.00  0.00    -0.105 SA
HETATM   12  C   UNL     1       0.973   3.708  -0.301  1.00  0.00     0.098 C 
ENDBRANCH   9  11
ENDBRANCH   7   9
ENDBRANCH   1   7
BRANCH   6  13
HETATM   13  O   UNL     1      -1.528  -1.296   0.618  1.00  0.00    -0.288 OA
BRANCH  13  14
HETATM   14  C   UNL     1      -2.686  -1.947   0.116  1.00  0.00     0.505 C 
HETATM   15  F   UNL     1      -3.746  -1.137   0.364  1.00  0.00    -0.184 F 
HETATM   16  F   UNL     1      -2.903  -3.080   0.831  1.00  0.00    -0.184 F 
ENDBRANCH  13  14
ENDBRANCH   6  13
TORSDOF 5
