REMARK  5 active torsions:
REMARK  status: ('A' for Active; 'I' for Inactive)
REMARK    1  A    between atoms: S_2  and  C_3 
REMARK    2  A    between atoms: C_3  and  N_5 
REMARK    3  A    between atoms: N_5  and  C_6 
REMARK    4  A    between atoms: N_9  and  C_10 
REMARK    5  A    between atoms: C_10  and  C_11 
ROOT
HETATM    1  C   UNL     1       0.017  -1.159   0.437  1.00  0.00     0.150 A 
HETATM    2  C   UNL     1      -0.408  -2.343  -0.216  1.00  0.00     0.071 A 
HETATM    3  C   UNL     1      -1.745  -2.152  -0.487  1.00  0.00     0.116 A 
HETATM    4  N   UNL     1      -2.063  -0.935   0.043  1.00  0.00    -0.275 N 
HETATM    5  N   UNL     1      -1.007  -0.331   0.616  1.00  0.00    -0.154 NA
ENDROOT
BRANCH   4   6
HETATM    6  C   UNL     1      -3.273  -0.136  -0.151  1.00  0.00     0.189 C 
BRANCH   6   7
HETATM    7  C   UNL     1      -4.606  -0.837  -0.045  1.00  0.00    -0.035 A 
HETATM    8  C   UNL     1      -5.713  -0.217  -0.654  1.00  0.00     0.051 A 
HETATM    9  C   UNL     1      -6.983  -0.768  -0.545  1.00  0.00     0.117 A 
HETATM   10  C   UNL     1      -7.192  -1.944   0.165  1.00  0.00     0.042 A 
HETATM   11  F   UNL     1      -8.022  -0.151  -1.124  1.00  0.00    -0.206 F 
HETATM   12  C   UNL     1      -6.111  -2.562   0.790  1.00  0.00     0.004 A 
HETATM   13  C   UNL     1      -4.831  -2.004   0.701  1.00  0.00     0.009 A 
ENDBRANCH   6   7
ENDBRANCH   4   6
BRANCH   1  14
HETATM   14  N   UNL     1       1.337  -0.866   0.731  1.00  0.00    -0.325 N 
HETATM   15  H   UNL     1       1.989  -1.495   0.301  1.00  0.00     0.169 HD
BRANCH  14  16
HETATM   16  C   UNL     1       1.818   0.270   1.344  1.00  0.00     0.139 C 
HETATM   17  S   UNL     1       1.036   1.246   2.466  1.00  0.00    -0.053 SA
BRANCH  16  18
HETATM   18  S   UNL     1       3.480   0.706   0.909  1.00  0.00    -0.105 SA
HETATM   19  C   UNL     1       4.161  -0.666  -0.021  1.00  0.00     0.098 C 
ENDBRANCH  16  18
ENDBRANCH  14  16
ENDBRANCH   1  14
TORSDOF 5
