REMARK  3 active torsions:
REMARK  status: ('A' for Active; 'I' for Inactive)
REMARK    1  A    between atoms: C_7  and  O_8 
REMARK    2  A    between atoms: C_7  and  C_9 
REMARK    3  A    between atoms: C_9  and  C_12 
ROOT
HETATM    1  O   UNL     1      -0.895  -1.544  -0.925  1.00  0.00    -0.288 OA
HETATM    2  C   UNL     1      -1.057  -0.434  -0.351  1.00  0.00     0.211 C 
HETATM    3  C   UNL     1      -2.203   0.217  -0.099  1.00  0.00     0.188 C 
HETATM    4  O   UNL     1      -2.331   1.382   0.595  1.00  0.00    -0.359 OA
HETATM    5  C   UNL     1      -1.249   2.273   0.367  1.00  0.00     0.178 C 
HETATM    6  C   UNL     1       0.155   1.678   0.336  1.00  0.00     0.079 C 
HETATM    7  C   UNL     1       0.224   0.138   0.289  1.00  0.00     0.195 C 
ENDROOT
BRANCH   7   8
HETATM    8  O   UNL     1       0.184  -0.316   1.674  1.00  0.00    -0.376 OA
HETATM    9  H   UNL     1      -0.283  -1.175   1.606  1.00  0.00     0.211 HD
ENDBRANCH   7   8
BRANCH   7  10
HETATM   10  C   UNL     1       1.627  -0.239  -0.312  1.00  0.00     0.324 C 
HETATM   11  F   UNL     1       2.588   0.313   0.518  1.00  0.00    -0.198 F 
HETATM   12  F   UNL     1       1.821   0.404  -1.511  1.00  0.00    -0.198 F 
BRANCH  10  13
HETATM   13  C   UNL     1       1.944  -1.728  -0.483  1.00  0.00     0.341 C 
HETATM   14  F   UNL     1       1.768  -2.432   0.670  1.00  0.00    -0.226 F 
HETATM   15 CL   UNL     1       3.685  -1.961  -0.957  1.00  0.00    -0.083 Cl
ENDBRANCH  10  13
ENDBRANCH   7  10
TORSDOF 3
