REMARK  2 active torsions:
REMARK  status: ('A' for Active; 'I' for Inactive)
REMARK    1  A    between atoms: S_2  and  C_3 
REMARK    2  A    between atoms: C_3  and  C_6 
REMARK       I    between atoms: C_6  and  N_7 
ROOT
HETATM    1  C   UNL     1       1.342   0.025  -0.094  1.00  0.00     0.081 C 
HETATM    2  C   UNL     1       0.921  -1.207  -0.904  1.00  0.00     0.037 C 
HETATM    3  C   UNL     1       1.807  -0.394   1.306  1.00  0.00     0.037 C 
ENDROOT
BRANCH   1   4
HETATM    4  S   UNL     1       2.674   0.942  -1.026  1.00  0.00    -0.154 SA
HETATM    5  C   UNL     1       4.131  -0.074  -0.677  1.00  0.00     0.091 C 
ENDBRANCH   1   4
BRANCH   1   6
HETATM    6  C   UNL     1       0.143   0.992   0.039  1.00  0.00     0.233 C 
HETATM    7  N   UNL     1       0.369   2.130   0.769  1.00  0.00    -0.369 N 
HETATM    8  H   UNL     1       1.317   2.482   0.837  1.00  0.00     0.159 HD
HETATM    9  H   UNL     1      -0.376   2.814   0.752  1.00  0.00     0.159 HD
HETATM   10  O   UNL     1      -0.973   0.787  -0.433  1.00  0.00    -0.272 OA
ENDBRANCH   1   6
TORSDOF 2
