REMARK  3 active torsions:
REMARK  status: ('A' for Active; 'I' for Inactive)
REMARK    1  A    between atoms: S_2  and  C_3 
REMARK    2  A    between atoms: C_3  and  C_5 
REMARK    3  A    between atoms: C_5  and  N_6 
ROOT
HETATM    1  C   UNL     1       1.933   0.688  -0.515  1.00  0.00     0.179 C 
HETATM    2  O   UNL     1       1.941   1.688  -1.220  1.00  0.00    -0.286 OA
ENDROOT
BRANCH   1   3
HETATM    3  S   UNL     1       3.464   0.000   0.000  1.00  0.00    -0.230 SA
HETATM    4  C   UNL     1       3.464  -1.000   0.000  1.00  0.00     0.270 C 
ENDBRANCH   1   3
BRANCH   1   5
HETATM    5  C   UNL     1       0.700  -0.057  -0.098  1.00  0.00     0.288 C 
BRANCH   5   6
HETATM    6  N   UNL     1      -0.418   0.919  -0.079  1.00  0.00    -0.148 N 
HETATM    7  O   UNL     1      -0.485   1.677   0.897  1.00  0.00    -0.536 OA
HETATM    8  O   UNL     1      -1.246   0.845  -0.996  1.00  0.00    -0.536 OA
ENDBRANCH   5   6
ENDBRANCH   1   5
TORSDOF 3
