REMARK  2 active torsions:
REMARK  status: ('A' for Active; 'I' for Inactive)
REMARK    1  A    between atoms: C_4  and  S_5 
REMARK    2  A    between atoms: S_5  and  C_6 
ROOT
HETATM    1  C   UNL     1       1.817  -2.809   0.000  1.00  0.00     0.071 C 
HETATM    2  C   UNL     1       1.817  -1.809   0.000  1.00  0.00     0.039 A 
HETATM    3  N   UNL     1       2.970  -1.064   0.070  1.00  0.00    -0.244 NA
HETATM    4  C   UNL     1       2.990   0.302   0.027  1.00  0.00     0.121 A 
HETATM    5  C   UNL     1       1.820   1.054  -0.005  1.00  0.00     0.087 A 
HETATM    6  C   UNL     1       1.810   2.484   0.006  1.00  0.00     0.103 C 
HETATM    7  N   UNL     1       1.771   3.640   0.014  1.00  0.00    -0.191 NA
HETATM    8  C   UNL     1       0.632   0.345  -0.015  1.00  0.00    -0.026 A 
HETATM    9  C   UNL     1       0.643  -1.055  -0.030  1.00  0.00    -0.026 A 
HETATM   10  C   UNL     1      -0.764  -1.596   0.012  1.00  0.00     0.041 C 
HETATM   11  C   UNL     1      -1.631  -0.352  -0.198  1.00  0.00     0.009 C 
HETATM   12  C   UNL     1      -0.764   0.883   0.065  1.00  0.00     0.041 C 
ENDROOT
BRANCH   4  13
HETATM   13  S   UNL     1       4.584   1.113   0.063  1.00  0.00    -0.040 SA
BRANCH  13  14
HETATM   14  C   UNL     1       5.767  -0.165  -0.093  1.00  0.00     0.310 C 
HETATM   15  O   UNL     1       5.642  -1.178  -0.768  1.00  0.00    -0.295 OA
ENDBRANCH  13  14
ENDBRANCH   4  13
TORSDOF 2
