REMARK  5 active torsions:
REMARK  status: ('A' for Active; 'I' for Inactive)
REMARK    1  A    between atoms: S_2  and  C_3 
REMARK    2  A    between atoms: C_3  and  C_5 
REMARK    3  A    between atoms: C_5  and  N_6 
REMARK    4  A    between atoms: C_5  and  C_7 
REMARK    5  A    between atoms: C_7  and  C_8 
ROOT
HETATM    1  C   UNL     1       2.903   0.171   1.556  1.00  0.00     0.305 C 
ENDROOT
BRANCH   1   2
HETATM    2  C   UNL     1       3.809  -0.070   0.338  1.00  0.00     0.218 C 
HETATM    3  O   UNL     1       4.011   0.784  -0.519  1.00  0.00    -0.283 OA
BRANCH   2   4
HETATM    4  S   UNL     1       4.592  -1.643   0.273  1.00  0.00    -0.095 SA
HETATM    5  C   UNL     1       3.391  -2.482  -0.783  1.00  0.00     0.099 C 
ENDBRANCH   2   4
ENDBRANCH   1   2
BRANCH   1   6
HETATM    6  N   UNL     1       3.040   1.576   2.017  1.00  0.00     0.091 N 
HETATM    7  H   UNL     1       3.955   1.690   2.455  1.00  0.00     0.313 HD
HETATM    8  H   UNL     1       3.100   2.187   1.189  1.00  0.00     0.313 HD
ENDBRANCH   1   6
BRANCH   1   9
HETATM    9  C   UNL     1       1.443  -0.198   1.240  1.00  0.00     0.122 C 
BRANCH   9  10
HETATM   10  C   UNL     1       0.866   0.500   0.000  1.00  0.00     0.125 C 
HETATM   11  C   UNL     1       0.866   1.500   0.000  1.00  0.00     0.091 C 
HETATM   12  O   UNL     1       0.425  -0.249  -0.883  1.00  0.00    -0.298 OA
ENDBRANCH   9  10
ENDBRANCH   1   9
TORSDOF 5
