REMARK  3 active torsions:
REMARK  status: ('A' for Active; 'I' for Inactive)
REMARK    1  A    between atoms: C_2  and  O_3 
REMARK    2  A    between atoms: C_2  and  C_11 
REMARK    3  A    between atoms: O_3  and  C_4 
ROOT
HETATM    1  O   UNL     1       1.240  -2.154  -0.824  1.00  0.00    -0.264 OA
HETATM    2  C   UNL     1       1.608  -1.068  -0.352  1.00  0.00     0.268 C 
ENDROOT
BRANCH   2   3
HETATM    3  O   UNL     1       2.934  -0.732  -0.376  1.00  0.00    -0.275 OA
BRANCH   3   4
HETATM    4  C   UNL     1       3.791   0.393  -0.123  1.00  0.00     0.129 C 
HETATM    5  C   UNL     1       5.189   0.270  -0.556  1.00  0.00     0.227 C 
HETATM    6  C   UNL     1       5.985   1.346  -0.387  1.00  0.00     0.192 C 
HETATM    7  O   UNL     1       5.492  -0.870  -0.998  1.00  0.00    -0.283 OA
HETATM    8  O   UNL     1       5.642   2.564   0.128  1.00  0.00    -0.355 OA
HETATM    9  C   UNL     1       4.261   2.760   0.421  1.00  0.00     0.205 C 
HETATM   10  C   UNL     1       3.390   1.545   0.426  1.00  0.00     0.041 C 
ENDBRANCH   3   4
ENDBRANCH   2   3
BRANCH   2  11
HETATM   11  C   UNL     1       0.586  -0.133   0.329  1.00  0.00     0.092 C 
HETATM   12  C   UNL     1      -0.938  -0.505  -0.023  1.00  0.00     0.022 C 
HETATM   13  C   UNL     1      -1.232   0.954   0.360  1.00  0.00     0.021 C 
HETATM   14  C   UNL     1      -1.995   2.110  -0.237  1.00  0.00     0.274 C 
HETATM   15  C   UNL     1       0.161   1.263  -0.252  1.00  0.00     0.033 C 
HETATM   16  N   UNL     1      -1.117   3.271   0.018  1.00  0.00     0.084 N 
HETATM   17  C   UNL     1       0.234   2.701   0.236  1.00  0.00     0.275 C 
HETATM   18  H   UNL     1      -1.103   3.867  -0.808  1.00  0.00     0.315 HD
ENDBRANCH   2  11
TORSDOF 3
