REMARK  8 active torsions:
REMARK  status: ('A' for Active; 'I' for Inactive)
REMARK    1  A    between atoms: O_2  and  C_3 
REMARK    2  A    between atoms: C_3  and  C_5 
REMARK    3  A    between atoms: C_5  and  C_6 
REMARK    4  A    between atoms: C_5  and  C_11 
REMARK    5  A    between atoms: C_6  and  C_7 
REMARK    6  A    between atoms: C_7  and  N_8 
REMARK    7  A    between atoms: C_11  and  C_12 
REMARK    8  A    between atoms: C_12  and  N_13 
ROOT
HETATM    1  N   UNL     1       0.763  -2.826  -0.945  1.00  0.00    -0.116 NA
HETATM    2  N   UNL     1       0.992  -3.922  -0.396  1.00  0.00    -0.168 NA
HETATM    3  N   UNL     1       1.201  -4.929   0.093  1.00  0.00     0.068 N 
ENDROOT
BRANCH   1   4
HETATM    4  C   UNL     1       1.818  -1.811  -0.818  1.00  0.00     0.190 C 
BRANCH   4   5
HETATM    5  C   UNL     1       1.166  -0.487  -0.401  1.00  0.00     0.039 C 
BRANCH   5   6
HETATM    6  C   UNL     1       2.156   0.692  -0.282  1.00  0.00     0.089 C 
BRANCH   6   7
HETATM    7  C   UNL     1       3.199   0.383   0.797  1.00  0.00     0.262 C 
HETATM    8  O   UNL     1       3.005  -0.434   1.688  1.00  0.00    -0.265 OA
BRANCH   7   9
HETATM    9  O   UNL     1       4.319   1.143   0.809  1.00  0.00    -0.326 OA
HETATM   10  C   UNL     1       4.984   1.533  -0.395  1.00  0.00     0.213 C 
ENDBRANCH   7   9
ENDBRANCH   6   7
BRANCH   6  11
HETATM   11  C   UNL     1       1.524   2.064   0.078  1.00  0.00     0.036 C 
BRANCH  11  12
HETATM   12  C   UNL     1       0.132   2.411  -0.472  1.00  0.00     0.146 C 
BRANCH  12  13
HETATM   13  N   UNL     1      -0.965   1.685   0.127  1.00  0.00    -0.283 N 
HETATM   14  N   UNL     1      -1.043   1.533   1.459  1.00  0.00     0.004 NA
HETATM   15  N   UNL     1      -1.978   0.624   1.698  1.00  0.00    -0.164 NA
HETATM   16  C   UNL     1      -2.529   0.252   0.501  1.00  0.00     0.065 A 
HETATM   17  C   UNL     1      -1.943   0.982  -0.510  1.00  0.00     0.136 A 
HETATM   18  C   UNL     1      -3.537  -0.821   0.424  1.00  0.00     0.073 C 
ENDBRANCH  12  13
ENDBRANCH  11  12
ENDBRANCH   6  11
ENDBRANCH   5   6
ENDBRANCH   4   5
ENDBRANCH   1   4
TORSDOF 8
