REMARK  2 active torsions:
REMARK  status: ('A' for Active; 'I' for Inactive)
REMARK    1  A    between atoms: C_2  and  O_3 
REMARK    2  A    between atoms: O_3  and  C_4 
ROOT
HETATM    1  C   UNL     1       0.071  -1.074  -0.304  1.00  0.00     0.136 C 
HETATM    2  C   UNL     1       0.056   0.422   0.088  1.00  0.00     0.070 C 
HETATM    3  C   UNL     1       1.585   0.440  -0.089  1.00  0.00     0.175 C 
HETATM    4  F   UNL     1       2.279   1.133   0.842  1.00  0.00    -0.249 F 
HETATM    5  C   UNL     1       1.564  -1.089   0.092  1.00  0.00     0.070 C 
ENDROOT
BRANCH   1   6
HETATM    6  O   UNL     1      -0.768  -1.957   0.469  1.00  0.00    -0.323 OA
BRANCH   6   7
HETATM    7  C   UNL     1      -2.089  -1.892   0.170  1.00  0.00     0.398 C 
HETATM    8  O   UNL     1      -2.605  -1.181  -0.678  1.00  0.00    -0.276 OA
ENDBRANCH   6   7
ENDBRANCH   1   6
TORSDOF 2
