REMARK  4 active torsions:
REMARK  status: ('A' for Active; 'I' for Inactive)
REMARK    1  A    between atoms: C_2  and  O_3 
REMARK    2  A    between atoms: O_3  and  C_4 
REMARK    3  A    between atoms: C_4  and  O_6 
REMARK    4  A    between atoms: O_6  and  C_7 
ROOT
HETATM    1  C   UNL     1      -0.643  -0.277   0.126  1.00  0.00     0.148 C 
HETATM    2  C   UNL     1      -1.655   0.389  -0.446  1.00  0.00     0.175 C 
HETATM    3  O   UNL     1      -1.727   1.739  -0.663  1.00  0.00    -0.360 OA
HETATM    4  C   UNL     1      -0.762   2.507   0.065  1.00  0.00     0.182 C 
HETATM    5  C   UNL     1       0.631   1.911   0.012  1.00  0.00     0.112 C 
HETATM    6  C   UNL     1       0.553   0.503   0.535  1.00  0.00     0.187 C 
HETATM    7  O   UNL     1       1.438  -0.006   1.218  1.00  0.00    -0.290 OA
ENDROOT
BRANCH   1   8
HETATM    8  O   UNL     1      -0.655  -1.664   0.276  1.00  0.00    -0.250 OA
BRANCH   8   9
HETATM    9  C   UNL     1       0.041  -2.255  -0.746  1.00  0.00     0.411 C 
HETATM   10  O   UNL     1       0.736  -1.680  -1.572  1.00  0.00    -0.229 OA
BRANCH   9  11
HETATM   11  O   UNL     1      -0.190  -3.596  -0.823  1.00  0.00    -0.298 OA
BRANCH  11  12
HETATM   12  C   UNL     1      -1.043  -4.311   0.093  1.00  0.00     0.176 C 
HETATM   13  C   UNL     1      -2.475  -3.789   0.144  1.00  0.00     0.034 C 
ENDBRANCH  11  12
ENDBRANCH   9  11
ENDBRANCH   8   9
ENDBRANCH   1   8
TORSDOF 4
