REMARK  4 active torsions:
REMARK  status: ('A' for Active; 'I' for Inactive)
REMARK    1  A    between atoms: C_7  and  O_8 
REMARK    2  A    between atoms: O_8  and  C_9 
REMARK    3  A    between atoms: C_9  and  N_11 
REMARK    4  A    between atoms: N_11  and  C_12 
ROOT
HETATM    1  C   UNL     1       1.797  -1.335   0.305  1.00  0.00     0.220 C 
HETATM    2  S   UNL     1       1.908  -0.669   1.841  1.00  0.00    -0.033 SA
ENDROOT
BRANCH   1   3
HETATM    3  O   UNL     1       2.889  -1.884  -0.328  1.00  0.00    -0.279 OA
BRANCH   3   4
HETATM    4  C   UNL     1       4.168  -1.299  -0.180  1.00  0.00     0.146 C 
HETATM    5  C   UNL     1       4.381   0.153  -0.427  1.00  0.00     0.186 C 
HETATM    6  O   UNL     1       3.554   0.830  -1.029  1.00  0.00    -0.290 OA
HETATM    7  C   UNL     1       5.648   0.733   0.137  1.00  0.00     0.112 C 
HETATM    8  C   UNL     1       6.763  -0.246  -0.168  1.00  0.00     0.182 C 
HETATM    9  O   UNL     1       6.515  -1.558   0.356  1.00  0.00    -0.360 OA
HETATM   10  C   UNL     1       5.234  -2.017   0.186  1.00  0.00     0.175 C 
ENDBRANCH   3   4
ENDBRANCH   1   3
BRANCH   1  11
HETATM   11  N   UNL     1       0.646  -1.673  -0.370  1.00  0.00    -0.326 N 
HETATM   12  H   UNL     1       0.735  -2.500  -0.947  1.00  0.00     0.169 HD
BRANCH  11  13
HETATM   13  C   UNL     1      -0.649  -1.133  -0.215  1.00  0.00     0.056 A 
HETATM   14  C   UNL     1      -0.935   0.246  -0.162  1.00  0.00     0.062 A 
HETATM   15  C   UNL     1      -2.257   0.691  -0.043  1.00  0.00     0.045 A 
HETATM   16 CL   UNL     1       0.252   1.469  -0.456  1.00  0.00    -0.082 Cl
HETATM   17  C   UNL     1      -3.298  -0.230   0.007  1.00  0.00     0.012 A 
HETATM   18  C   UNL     1      -3.034  -1.596  -0.083  1.00  0.00     0.021 A 
HETATM   19 BR   UNL     1      -5.081   0.377   0.143  1.00  0.00    -0.051 Br
HETATM   20  C   UNL     1      -1.715  -2.043  -0.210  1.00  0.00     0.032 A 
ENDBRANCH  11  13
ENDBRANCH   1  11
TORSDOF 4
