REMARK  7 active torsions:
REMARK  status: ('A' for Active; 'I' for Inactive)
REMARK    1  A    between atoms: N_4  and  C_5 
REMARK    2  A    between atoms: C_5  and  CA_6 
REMARK    3  A    between atoms: CA_6  and  N_7 
REMARK    4  A    between atoms: CA_6  and  C_15 
REMARK       I    between atoms: N_7  and  C_8 
REMARK    5  A    between atoms: C_8  and  O_10 
REMARK    6  A    between atoms: O_10  and  C_11 
REMARK    7  A    between atoms: C_15  and  OXT_17 
ROOT
HETATM    1  CA  UNL     1       2.461  -2.904   0.148  1.00  0.00     0.204 C 
ENDROOT
BRANCH   1   2
HETATM    2  C   UNL     1       0.928  -2.861  -0.082  1.00  0.00     0.188 C 
BRANCH   2   3
HETATM    3  N   UNL     1       0.273  -1.562   0.073  1.00  0.00    -0.258 N 
HETATM    4  C   UNL     1       0.607  -0.483   0.883  1.00  0.00     0.142 C 
HETATM    5  C   UNL     1       0.809   0.588   0.000  1.00  0.00     0.071 C 
HETATM    6  C   UNL     1       0.809   1.588   0.000  1.00  0.00     0.074 C 
HETATM    7  N   UNL     1       0.260   0.122  -1.208  1.00  0.00    -0.136 NA
HETATM    8  N   UNL     1      -0.266  -1.075  -1.051  1.00  0.00    -0.066 NA
ENDBRANCH   2   3
ENDBRANCH   1   2
BRANCH   1   9
HETATM    9  N   UNL     1       3.249  -3.614  -0.924  1.00  0.00    -0.321 N 
HETATM   10  C   UNL     1       4.562  -3.331  -1.172  1.00  0.00     0.362 C 
HETATM   11  O   UNL     1       5.336  -4.276  -1.405  1.00  0.00    -0.238 OA
HETATM   12  H   UNL     1       3.071  -4.608  -0.991  1.00  0.00     0.165 HD
BRANCH  10  13
HETATM   13  O   UNL     1       4.892  -2.054  -1.180  1.00  0.00    -0.294 OA
BRANCH  13  14
HETATM   14  C   UNL     1       6.045  -1.399  -0.566  1.00  0.00     0.061 C 
HETATM   15  C   UNL     1       7.056  -0.892  -1.562  1.00  0.00     0.046 C 
HETATM   16  C   UNL     1       5.562  -0.114   0.130  1.00  0.00     0.046 C 
HETATM   17  C   UNL     1       6.744  -2.341   0.378  1.00  0.00     0.046 C 
ENDBRANCH  13  14
ENDBRANCH  10  13
ENDBRANCH   1   9
BRANCH   1  18
HETATM   18  C   UNL     1       2.907  -1.497   0.213  1.00  0.00     0.165 C 
HETATM   19  O   UNL     1       3.228  -0.962   1.236  1.00  0.00    -0.648 OA
BRANCH  18  20
HETATM   20  OXT UNL     1       2.814  -0.910  -0.991  1.00  0.00    -0.775 OA
HETATM   21  HXT UNL     1       2.938   0.070  -0.942  1.00  0.00     0.167 HD
ENDBRANCH  18  20
ENDBRANCH   1  18
TORSDOF 7
