REMARK  14 active torsions:
REMARK  status: ('A' for Active; 'I' for Inactive)
REMARK    1  A    between atoms: C_2  and  C_4 
REMARK    2  A    between atoms: C_4  and  C_5 
REMARK    3  A    between atoms: C_5  and  C_7 
REMARK    4  A    between atoms: C_7  and  O_8 
REMARK    5  A    between atoms: C_7  and  C_9 
REMARK    6  A    between atoms: C_9  and  C_11 
REMARK    7  A    between atoms: C_11  and  C_12 
REMARK    8  A    between atoms: C_11  and  C_15 
REMARK    9  A    between atoms: C_12  and  C_13 
REMARK   10  A    between atoms: C_13  and  O_14 
REMARK   11  A    between atoms: C_15  and  C_17 
REMARK   12  A    between atoms: C_22  and  O_23 
REMARK   13  A    between atoms: O_23  and  C_24 
REMARK   14  A    between atoms: C_24  and  C_25 
ROOT
HETATM    1  C   UNL     1       5.587  -1.338  -0.793  1.00  0.00     0.044 C 
HETATM    2  C   UNL     1       6.950  -1.617  -0.863  1.00  0.00     0.018 C 
HETATM    3  C   UNL     1       7.876  -0.610  -0.603  1.00  0.00     0.001 C 
HETATM    4  C   UNL     1       7.439   0.688  -0.342  1.00  0.00     0.003 C 
HETATM    5  C   UNL     1       6.078   0.996  -0.409  1.00  0.00     0.038 C 
HETATM    6  C   UNL     1       5.152  -0.020  -0.646  1.00  0.00     0.083 C 
ENDROOT
BRANCH   1   7
HETATM    7  C   UNL     1       4.610  -2.453  -0.745  1.00  0.00     0.173 C 
HETATM    8  O   UNL     1       3.809  -2.598  -1.666  1.00  0.00    -0.291 OA
BRANCH   7   9
HETATM    9  C   UNL     1       4.560  -3.352   0.501  1.00  0.00     0.135 C 
BRANCH   9  10
HETATM   10  C   UNL     1       5.880  -3.362   1.311  1.00  0.00     0.174 C 
HETATM   11  O   UNL     1       6.129  -2.477   2.126  1.00  0.00    -0.294 OA
BRANCH  10  12
HETATM   12  C   UNL     1       6.782  -4.531   1.117  1.00  0.00     0.258 C 
BRANCH  12  13
HETATM   13  C   UNL     1       8.234  -4.498   0.691  1.00  0.00     0.169 C 
HETATM   14  O   UNL     1       8.926  -3.481   0.759  1.00  0.00    -0.294 OA
BRANCH  13  15
HETATM   15  C   UNL     1       8.786  -5.801   0.116  1.00  0.00     0.159 C 
BRANCH  15  16
HETATM   16  C   UNL     1       7.905  -7.062   0.000  1.00  0.00     0.130 C 
HETATM   17  C   UNL     1       6.905  -7.062   0.000  1.00  0.00     0.091 C 
HETATM   18  O   UNL     1       8.580  -8.100  -0.167  1.00  0.00    -0.298 OA
ENDBRANCH  15  16
ENDBRANCH  13  15
ENDBRANCH  12  13
BRANCH  12  19
HETATM   19  O   UNL     1       6.661  -5.405   2.226  1.00  0.00    -0.380 OA
HETATM   20  H   UNL     1       7.033  -4.926   2.996  1.00  0.00     0.211 HD
ENDBRANCH  12  19
ENDBRANCH  10  12
ENDBRANCH   9  10
BRANCH   9  21
HETATM   21  C   UNL     1       4.098  -4.781   0.086  1.00  0.00     0.046 C 
BRANCH  21  22
HETATM   22  C   UNL     1       2.604  -5.058   0.050  1.00  0.00     0.165 C 
BRANCH  22  23
HETATM   23  O   UNL     1       1.871  -3.955  -0.437  1.00  0.00    -0.401 OA
HETATM   24  H   UNL     1       2.283  -3.671  -1.283  1.00  0.00     0.209 HD
ENDBRANCH  22  23
ENDBRANCH  21  22
ENDBRANCH   9  21
ENDBRANCH   7   9
ENDBRANCH   1   7
BRANCH   6  25
HETATM   25  O   UNL     1       3.846   0.250  -0.909  1.00  0.00    -0.343 OA
BRANCH  25  26
HETATM   26  C   UNL     1       3.128   0.852   0.157  1.00  0.00     0.254 C 
BRANCH  26  27
HETATM   27  C   UNL     1       1.715   0.449  -0.064  1.00  0.00     0.129 A 
HETATM   28  N   UNL     1       1.314  -0.872   0.028  1.00  0.00    -0.344 N 
HETATM   29  C   UNL     1      -0.036  -0.884  -0.113  1.00  0.00     0.035 A 
HETATM   30  H   UNL     1       1.904  -1.672   0.197  1.00  0.00     0.167 HD
HETATM   31  C   UNL     1      -0.383   0.404  -0.434  1.00  0.00     0.059 A 
HETATM   32  C   UNL     1      -0.951  -2.021   0.123  1.00  0.00     0.059 C 
HETATM   33  N   UNL     1       0.698   1.233  -0.379  1.00  0.00    -0.236 NA
HETATM   34  C   UNL     1      -1.787   0.815  -0.630  1.00  0.00     0.061 C 
HETATM   35  C   UNL     1      -2.654  -0.028   0.324  1.00  0.00     0.006 C 
HETATM   36  C   UNL     1      -2.427  -1.549   0.145  1.00  0.00     0.006 C 
ENDBRANCH  26  27
ENDBRANCH  25  26
ENDBRANCH   6  25
TORSDOF 14
