REMARK  4 active torsions:
REMARK  status: ('A' for Active; 'I' for Inactive)
REMARK    1  A    between atoms: C_2  and  N_3 
REMARK    2  A    between atoms: N_3  and  C_4 
REMARK    3  A    between atoms: C_10  and  S_11 
REMARK    4  A    between atoms: S_11  and  C_12 
ROOT
HETATM    1  C   UNL     1       1.209  -0.860  -0.316  1.00  0.00     0.112 C 
HETATM    2  C   UNL     1       0.829  -2.283   0.090  1.00  0.00     0.166 C 
HETATM    3  S   UNL     1      -0.932  -2.361  -0.110  1.00  0.00     0.147 S 
HETATM    4  O   UNL     1      -1.222  -2.779  -1.462  1.00  0.00    -0.228 OA
HETATM    5  O   UNL     1      -1.495  -3.017   1.048  1.00  0.00    -0.228 OA
HETATM    6  C   UNL     1      -1.257  -0.620  -0.003  1.00  0.00     0.158 C 
HETATM    7  C   UNL     1       0.087   0.077   0.207  1.00  0.00     0.092 C 
ENDROOT
BRANCH   1   8
HETATM    8  N   UNL     1       2.518  -0.421   0.189  1.00  0.00    -0.362 N 
HETATM    9  H   UNL     1       2.685   0.582   0.219  1.00  0.00     0.162 HD
BRANCH   8  10
HETATM   10  C   UNL     1       3.640  -1.200   0.192  1.00  0.00     0.348 C 
HETATM   11  O   UNL     1       3.684  -2.394  -0.080  1.00  0.00    -0.284 OA
ENDBRANCH   8  10
ENDBRANCH   1   8
BRANCH   7  12
HETATM   12  S   UNL     1       0.265   1.709  -0.626  1.00  0.00    -0.093 SA
BRANCH  12  13
HETATM   13  C   UNL     1      -1.200   2.548  -0.157  1.00  0.00     0.304 C 
HETATM   14  O   UNL     1      -2.274   1.980  -0.015  1.00  0.00    -0.295 OA
ENDBRANCH  12  13
ENDBRANCH   7  12
TORSDOF 4
