REMARK  1 active torsions:
REMARK  status: ('A' for Active; 'I' for Inactive)
REMARK    1  A    between atoms: N_4  and  C_5 
ROOT
HETATM    1  C   UNL     1       0.835  -1.811   0.203  1.00  0.00     0.073 C 
HETATM    2  C   UNL     1      -0.268  -0.835   0.104  1.00  0.00     0.065 A 
HETATM    3  C   UNL     1      -1.623  -1.052  -0.022  1.00  0.00     0.136 A 
HETATM    4  N   UNL     1      -2.169   0.194   0.093  1.00  0.00    -0.278 N 
HETATM    5  N   UNL     1      -1.206   1.130   0.203  1.00  0.00     0.005 NA
HETATM    6  N   UNL     1      -0.036   0.508   0.207  1.00  0.00    -0.164 NA
ENDROOT
BRANCH   4   7
HETATM    7  C   UNL     1      -3.548   0.547   0.355  1.00  0.00     0.115 C 
HETATM    8  C   UNL     1      -4.587  -0.416  -0.221  1.00  0.00     0.038 C 
HETATM    9  C   UNL     1      -5.949   0.186   0.089  1.00  0.00     0.076 C 
HETATM   10  S   UNL     1      -5.747   1.962  -0.196  1.00  0.00    -0.167 SA
HETATM   11  C   UNL     1      -3.925   1.929  -0.190  1.00  0.00     0.100 C 
ENDBRANCH   4   7
TORSDOF 1
