REMARK  5 active torsions:
REMARK  status: ('A' for Active; 'I' for Inactive)
REMARK    1  A    between atoms: C_4  and  N_5 
REMARK    2  A    between atoms: N_5  and  C_6 
REMARK    3  A    between atoms: C_6  and  O_8 
REMARK    4  A    between atoms: O_8  and  C_9 
REMARK    5  A    between atoms: C_17  and  N_18 
ROOT
HETATM    1  C   UNL     1       0.866   1.500   0.000  1.00  0.00     0.071 C 
HETATM    2  C   UNL     1       0.866   0.500   0.000  1.00  0.00     0.053 C 
HETATM    3  C   UNL     1       1.999  -0.275  -0.157  1.00  0.00     0.078 C 
HETATM    4  C   UNL     1       1.906  -1.653  -0.137  1.00  0.00     0.151 C 
HETATM    5  N   UNL     1       0.727  -2.290  -0.129  1.00  0.00    -0.045 NA
HETATM    6  C   UNL     1      -0.367  -1.537  -0.018  1.00  0.00     0.726 C 
HETATM    7  N   UNL     1      -0.300  -0.198   0.111  1.00  0.00    -0.068 NA
ENDROOT
BRANCH   4   8
HETATM    8  N   UNL     1       3.018  -2.499  -0.096  1.00  0.00    -0.311 N 
HETATM    9  H   UNL     1       2.790  -3.476  -0.207  1.00  0.00     0.170 HD
BRANCH   8  10
HETATM   10  C   UNL     1       4.239  -2.289   0.512  1.00  0.00     0.221 C 
HETATM   11  S   UNL     1       5.089  -3.613   1.102  1.00  0.00    -0.032 SA
BRANCH  10  12
HETATM   12  O   UNL     1       4.489  -1.058   1.036  1.00  0.00    -0.278 OA
BRANCH  12  13
HETATM   13  C   UNL     1       5.366  -0.030   0.525  1.00  0.00     0.150 C 
HETATM   14  C   UNL     1       6.350  -0.223  -0.544  1.00  0.00     0.205 C 
HETATM   15  C   UNL     1       7.209   0.802  -0.721  1.00  0.00     0.057 C 
HETATM   16  O   UNL     1       6.280  -1.300  -1.178  1.00  0.00    -0.286 OA
HETATM   17  C   UNL     1       7.132   2.094   0.020  1.00  0.00     0.206 C 
HETATM   18  O   UNL     1       5.932   2.319   0.783  1.00  0.00    -0.356 OA
HETATM   19  C   UNL     1       5.210   1.192   1.071  1.00  0.00     0.176 C 
ENDBRANCH  12  13
ENDBRANCH  10  12
ENDBRANCH   8  10
ENDBRANCH   4   8
BRANCH   6  20
HETATM   20  N   UNL     1      -1.630  -2.123  -0.111  1.00  0.00    -0.214 N 
HETATM   21  C   UNL     1      -2.739  -1.275   0.321  1.00  0.00     0.141 C 
HETATM   22  C   UNL     1      -4.045  -1.834  -0.240  1.00  0.00     0.020 C 
HETATM   23  C   UNL     1      -4.240  -3.292   0.154  1.00  0.00     0.003 C 
HETATM   24  C   UNL     1      -3.022  -4.132  -0.226  1.00  0.00     0.020 C 
HETATM   25  C   UNL     1      -1.706  -3.528   0.276  1.00  0.00     0.141 C 
ENDBRANCH   6  20
TORSDOF 5
