REMARK  2 active torsions:
REMARK  status: ('A' for Active; 'I' for Inactive)
REMARK    1  A    between atoms: C_8  and  S_9 
REMARK    2  A    between atoms: S_9  and  C_10 
ROOT
HETATM    1  C   UNL     1      -1.260  -1.260   0.000  1.00  0.00     0.159 C 
HETATM    2  N   UNL     1      -0.951  -0.309   0.000  1.00  0.00    -0.322 N 
HETATM    3  C   UNL     1      -1.798   0.846  -0.124  1.00  0.00     0.228 A 
HETATM    4  O   UNL     1      -3.016   0.882  -0.227  1.00  0.00    -0.273 OA
HETATM    5  C   UNL     1      -0.911   2.093  -0.104  1.00  0.00     0.144 A 
HETATM    6  C   UNL     1       0.464   1.523  -0.062  1.00  0.00    -0.021 A 
HETATM    7  C   UNL     1       1.682   2.187  -0.047  1.00  0.00     0.028 A 
HETATM    8  C   UNL     1       2.876   1.443  -0.039  1.00  0.00     0.008 A 
HETATM    9  C   UNL     1       2.796   0.038  -0.062  1.00  0.00     0.021 A 
HETATM   10  C   UNL     1       1.556  -0.624  -0.056  1.00  0.00     0.031 A 
HETATM   11  C   UNL     1       0.397   0.136  -0.045  1.00  0.00     0.043 A 
ENDROOT
BRANCH   8  12
HETATM   12  S   UNL     1       4.384   2.398  -0.037  1.00  0.00    -0.062 SA
BRANCH  12  13
HETATM   13  C   UNL     1       5.713   1.270   0.112  1.00  0.00     0.309 C 
HETATM   14  O   UNL     1       6.868   1.618  -0.106  1.00  0.00    -0.295 OA
ENDBRANCH  12  13
ENDBRANCH   8  12
TORSDOF 2
