REMARK  3 active torsions:
REMARK  status: ('A' for Active; 'I' for Inactive)
REMARK    1  A    between atoms: C_2  and  C_3 
REMARK    2  A    between atoms: C_3  and  N_4 
REMARK    3  A    between atoms: N_4  and  C_5 
ROOT
HETATM    1  C   UNL     1       1.732  -1.000   0.000  1.00  0.00     0.033 C 
HETATM    2  C   UNL     1       1.732   0.000   0.000  1.00  0.00     0.083 A 
HETATM    3  N   UNL     1       0.866   0.500   0.000  1.00  0.00    -0.415 N 
HETATM    4  C   UNL     1       0.866   1.500   0.000  1.00  0.00     0.154 A 
HETATM    5  C   UNL     1      -0.513  -0.134  -0.079  1.00  0.00     0.143 C 
ENDROOT
BRANCH   2   6
HETATM    6  C   UNL     1       2.804   0.461  -1.265  1.00  0.00     0.145 C 
BRANCH   6   7
HETATM    7  N   UNL     1       3.258   1.853  -1.233  1.00  0.00    -0.366 N 
HETATM    8  H   UNL     1       2.718   2.545  -1.730  1.00  0.00     0.161 HD
BRANCH   7   9
HETATM    9  C   UNL     1       4.267   2.278  -0.406  1.00  0.00     0.348 C 
HETATM   10  O   UNL     1       4.936   1.576   0.332  1.00  0.00    -0.284 OA
ENDBRANCH   7   9
ENDBRANCH   6   7
ENDBRANCH   2   6
TORSDOF 3
