REMARK  3 active torsions:
REMARK  status: ('A' for Active; 'I' for Inactive)
REMARK    1  A    between atoms: N_4  and  C_5 
REMARK       I    between atoms: N_8  and  C_9 
REMARK    2  A    between atoms: C_9  and  O_11 
REMARK    3  A    between atoms: O_11  and  C_12 
ROOT
HETATM    1  C   UNL     1      -2.861  -0.611   0.446  1.00  0.00     0.142 C 
HETATM    2  C   UNL     1      -2.656  -1.212   1.851  1.00  0.00     0.050 C 
HETATM    3  C   UNL     1      -3.963  -1.587   2.524  1.00  0.00     0.130 C 
HETATM    4  N   UNL     1      -5.004  -1.786   1.538  1.00  0.00    -0.325 N 
HETATM    5  C   UNL     1      -5.251  -3.036   0.972  1.00  0.00     0.363 C 
HETATM    6  O   UNL     1      -6.231  -3.269   0.273  1.00  0.00    -0.238 OA
HETATM    7  C   UNL     1      -5.369  -0.585   0.777  1.00  0.00     0.167 C 
HETATM    8  C   UNL     1      -4.124   0.246   0.356  1.00  0.00     0.212 C 
HETATM    9  F   UNL     1      -4.298   0.646  -0.938  1.00  0.00    -0.245 F 
ENDROOT
BRANCH   5  10
HETATM   10  O   UNL     1      -4.187  -3.878   1.117  1.00  0.00    -0.294 OA
BRANCH  10  11
HETATM   11  C   UNL     1      -3.681  -4.702   0.000  1.00  0.00     0.061 A 
HETATM   12  C   UNL     1      -2.681  -4.702   0.000  1.00  0.00     0.046 A 
HETATM   13  C   UNL     1      -3.681  -5.702   0.000  1.00  0.00     0.046 A 
HETATM   14  C   UNL     1      -4.158  -3.981  -1.368  1.00  0.00     0.046 C 
ENDBRANCH  10  11
ENDBRANCH   5  10
BRANCH   1  15
HETATM   15  N   UNL     1      -1.617   0.008   0.014  1.00  0.00    -0.276 N 
HETATM   16  C   UNL     1      -0.589  -0.713  -0.545  1.00  0.00     0.136 C 
HETATM   17  C   UNL     1       0.538  -0.140  -0.005  1.00  0.00     0.065 C 
HETATM   18  C   UNL     1       1.916  -0.667   0.022  1.00  0.00     0.073 C 
HETATM   19  N   UNL     1       0.181   1.003   0.662  1.00  0.00    -0.164 NA
HETATM   20  N   UNL     1      -1.143   1.099   0.645  1.00  0.00     0.005 NA
ENDBRANCH   1  15
TORSDOF 3
