REMARK  5 active torsions:
REMARK  status: ('A' for Active; 'I' for Inactive)
REMARK    1  A    between atoms: C_6  and  C_7 
REMARK    2  A    between atoms: C_7  and  N_8 
REMARK    3  A    between atoms: C_10  and  N_11 
REMARK    4  A    between atoms: N_11  and  C_12 
REMARK    5  A    between atoms: C_12  and  S_14 
ROOT
HETATM    1  N   UNL     1      -3.347   1.345  -1.005  1.00  0.00    -0.179 NA
HETATM    2  C   UNL     1      -4.113   0.212  -1.150  1.00  0.00     0.110 C 
HETATM    3  C   UNL     1      -4.823   0.415   0.014  1.00  0.00     0.045 C 
HETATM    4  C   UNL     1      -5.094   1.798   0.038  1.00  0.00     0.157 C 
HETATM    5  N   UNL     1      -4.201   2.396  -0.781  1.00  0.00    -0.205 NA
ENDROOT
BRANCH   1   6
HETATM    6  C   UNL     1      -2.191   1.266  -0.099  1.00  0.00     0.159 C 
BRANCH   6   7
HETATM    7  C   UNL     1      -1.408  -0.065  -0.044  1.00  0.00    -0.021 C 
HETATM    8  C   UNL     1      -1.681  -1.448   0.069  1.00  0.00     0.138 C 
HETATM    9  N   UNL     1      -0.534  -2.139   0.060  1.00  0.00    -0.210 NA
HETATM   10  N   UNL     1       0.318  -1.188  -0.330  1.00  0.00    -0.193 NA
HETATM   11  C   UNL     1       1.588  -0.809   0.000  1.00  0.00     0.128 A 
HETATM   12  C   UNL     1       0.000   0.000   0.000  1.00  0.00     0.069 A 
HETATM   13  C   UNL     1       2.088  -1.675   0.000  1.00  0.00     0.024 C 
HETATM   14  C   UNL     1       0.309   0.951   0.000  1.00  0.00     0.040 C 
ENDBRANCH   6   7
ENDBRANCH   1   6
BRANCH   3  15
HETATM   15  N   UNL     1      -5.021  -0.591   0.948  1.00  0.00    -0.245 NA
HETATM   16  H   UNL     1      -4.307  -1.311   0.854  1.00  0.00     0.135 HD
BRANCH  15  17
HETATM   17  C   UNL     1      -6.180  -1.218   0.737  1.00  0.00     0.087 C 
HETATM   18  S   UNL     1      -7.677  -0.414   0.994  1.00  0.00    -0.062 SA
BRANCH  17  19
HETATM   19  S   UNL     1      -5.876  -2.943   0.000  1.00  0.00    -0.244 SA
HETATM   20  C   UNL     1      -6.876  -2.943   0.000  1.00  0.00     0.266 C 
ENDBRANCH  17  19
ENDBRANCH  15  17
ENDBRANCH   3  15
TORSDOF 5
