REMARK  1 active torsions:
REMARK  status: ('A' for Active; 'I' for Inactive)
REMARK    1  A    between atoms: N_4  and  C_5 
ROOT
HETATM    1  C   UNL     1      -2.978  -2.030  -0.000  1.00  0.00     0.092 A 
HETATM    2  C   UNL     1      -3.008  -3.436  -0.000  1.00  0.00     0.034 A 
HETATM    3  C   UNL     1      -4.226  -4.118  -0.000  1.00  0.00     0.002 A 
HETATM    4  C   UNL     1      -5.422  -3.407  -0.000  1.00  0.00     0.003 A 
HETATM    5  C   UNL     1      -5.399  -2.013  -0.000  1.00  0.00     0.045 A 
HETATM    6  C   UNL     1      -4.184  -1.328  -0.000  1.00  0.00     0.144 A 
HETATM    7  F   UNL     1      -4.233   0.010   0.000  1.00  0.00    -0.204 F 
ENDROOT
BRANCH   1   8
HETATM    8  N   UNL     1      -1.736  -1.350   0.000  1.00  0.00    -0.244 N 
HETATM    9  C   UNL     1      -0.477  -1.909   0.000  1.00  0.00     0.142 A 
HETATM   10  C   UNL     1       0.401  -0.849   0.000  1.00  0.00     0.065 A 
HETATM   11  C   UNL     1       1.844  -0.830  -0.000  1.00  0.00     0.073 C 
HETATM   12  N   UNL     1      -0.326   0.309   0.000  1.00  0.00    -0.163 NA
HETATM   13  N   UNL     1      -1.615  -0.004   0.000  1.00  0.00     0.010 NA
ENDBRANCH   1   8
TORSDOF 1
