REMARK  6 active torsions:
REMARK  status: ('A' for Active; 'I' for Inactive)
REMARK    1  A    between atoms: N_4  and  C_5 
REMARK    2  A    between atoms: C_5  and  C_6 
REMARK    3  A    between atoms: C_6  and  C_7 
REMARK    4  A    between atoms: C_7  and  C_8 
REMARK    5  A    between atoms: C_8  and  O_10 
REMARK    6  A    between atoms: O_10  and  N_11 
ROOT
HETATM    1  C   UNL     1      -6.416   2.010   0.222  1.00  0.00     0.282 C 
HETATM    2  O   UNL     1      -7.082   2.129   1.243  1.00  0.00    -0.263 OA
ENDROOT
BRANCH   1   3
HETATM    3  C   UNL     1      -5.127   2.752  -0.046  1.00  0.00     0.115 C 
BRANCH   3   4
HETATM    4  C   UNL     1      -4.013   1.715  -0.021  1.00  0.00     0.031 C 
BRANCH   4   5
HETATM    5  C   UNL     1      -2.597   2.261   0.114  1.00  0.00     0.146 C 
BRANCH   5   6
HETATM    6  N   UNL     1      -1.607   1.195   0.144  1.00  0.00    -0.283 N 
HETATM    7  C   UNL     1      -1.806  -0.153   0.084  1.00  0.00     0.136 A 
HETATM    8  C   UNL     1      -0.546  -0.674  -0.072  1.00  0.00     0.065 A 
HETATM    9  C   UNL     1      -0.158  -2.074  -0.321  1.00  0.00     0.073 C 
HETATM   10  N   UNL     1       0.368   0.344  -0.009  1.00  0.00    -0.164 NA
HETATM   11  N   UNL     1      -0.295   1.488   0.132  1.00  0.00     0.004 NA
ENDBRANCH   5   6
ENDBRANCH   4   5
ENDBRANCH   3   4
ENDBRANCH   1   3
BRANCH   1  12
HETATM   12  O   UNL     1      -6.648   1.097  -0.771  1.00  0.00    -0.187 OA
BRANCH  12  13
HETATM   13  N   UNL     1      -7.485   0.074  -0.335  1.00  0.00    -0.145 N 
HETATM   14  C   UNL     1      -8.802   0.051  -0.650  1.00  0.00     0.251 C 
HETATM   15  C   UNL     1      -9.356  -1.229  -0.093  1.00  0.00     0.115 C 
HETATM   16  O   UNL     1      -9.443   0.877  -1.278  1.00  0.00    -0.271 OA
HETATM   17  C   UNL     1      -8.119  -2.086   0.164  1.00  0.00     0.115 C 
HETATM   18  C   UNL     1      -6.971  -1.134   0.002  1.00  0.00     0.251 C 
HETATM   19  O   UNL     1      -5.786  -1.442   0.091  1.00  0.00    -0.271 OA
ENDBRANCH  12  13
ENDBRANCH   1  12
TORSDOF 6
