REMARK  2 active torsions:
REMARK  status: ('A' for Active; 'I' for Inactive)
REMARK    1  A    between atoms: C_2  and  C_3 
REMARK    2  A    between atoms: C_6  and  O_7 
ROOT
HETATM    1  C   UNL     1      -0.366   2.366   0.000  1.00  0.00     0.040 A 
HETATM    2  C   UNL     1      -0.866   1.500   0.000  1.00  0.00    -0.013 A 
HETATM    3  C   UNL     1      -2.372   2.522   0.064  1.00  0.00     0.025 C 
HETATM    4  C   UNL     1      -1.366   0.634   0.000  1.00  0.00     0.180 A 
HETATM    5  S   UNL     1       0.000   1.000   0.000  1.00  0.00    -0.286 SA
HETATM    6  C   UNL     1       0.000   0.000   0.000  1.00  0.00     0.231 A 
ENDROOT
BRANCH   1   7
HETATM    7  C   UNL     1       1.299   3.117   0.125  1.00  0.00     0.003 C 
HETATM    8  C   UNL     1       2.577   2.293  -0.069  1.00  0.00     0.006 C 
ENDBRANCH   1   7
BRANCH   4   9
HETATM    9  O   UNL     1      -2.235   0.411   1.307  1.00  0.00    -0.396 OA
HETATM   10  H   UNL     1      -3.063   0.003   1.003  1.00  0.00     0.210 HD
ENDBRANCH   4   9
TORSDOF 2
