REMARK  6 active torsions:
REMARK  status: ('A' for Active; 'I' for Inactive)
REMARK    1  A    between atoms: O_2  and  C_3 
REMARK    2  A    between atoms: C_3  and  C_5 
REMARK    3  A    between atoms: C_10  and  N_11 
REMARK    4  A    between atoms: N_11  and  C_12 
REMARK    5  A    between atoms: C_12  and  O_14 
REMARK    6  A    between atoms: O_14  and  C_15 
ROOT
HETATM    1  N   UNL     1       1.726   1.978   0.021  1.00  0.00    -0.325 N 
HETATM    2  H   UNL     1       1.788   2.904  -0.394  1.00  0.00     0.169 HD
ENDROOT
BRANCH   1   3
HETATM    3  C   UNL     1       2.878   1.206  -0.032  1.00  0.00     0.069 C 
HETATM    4  C   UNL     1       4.093   1.676  -0.520  1.00  0.00     0.135 C 
HETATM    5  N   UNL     1       4.889   0.566  -0.712  1.00  0.00    -0.353 N 
HETATM    6  C   UNL     1       4.315  -0.540  -0.151  1.00  0.00     0.008 C 
HETATM    7  H   UNL     1       5.775   0.582  -1.197  1.00  0.00     0.166 HD
HETATM    8  C   UNL     1       4.972  -1.866  -0.160  1.00  0.00     0.068 C 
HETATM    9  C   UNL     1       3.078  -0.154   0.315  1.00  0.00     0.056 C 
BRANCH   4  10
HETATM   10  C   UNL     1       4.475   3.021  -0.891  1.00  0.00     0.312 C 
HETATM   11  O   UNL     1       3.692   3.922  -1.164  1.00  0.00    -0.258 OA
BRANCH  10  12
HETATM   12  O   UNL     1       5.831   3.195  -0.993  1.00  0.00    -0.321 OA
HETATM   13  C   UNL     1       6.643   2.832   0.136  1.00  0.00     0.213 C 
ENDBRANCH  10  12
ENDBRANCH   4  10
ENDBRANCH   1   3
BRANCH   1  14
HETATM   14  C   UNL     1       0.432   1.488   0.088  1.00  0.00     0.220 C 
HETATM   15  S   UNL     1      -0.786   2.379  -0.630  1.00  0.00    -0.033 SA
BRANCH  14  16
HETATM   16  O   UNL     1       0.275   0.303   0.750  1.00  0.00    -0.280 OA
BRANCH  16  17
HETATM   17  C   UNL     1      -0.666  -0.710   0.394  1.00  0.00     0.128 C 
HETATM   18  C   UNL     1      -2.039  -0.699   0.912  1.00  0.00     0.227 C 
HETATM   19  C   UNL     1      -2.882  -1.585   0.350  1.00  0.00     0.192 C 
HETATM   20  O   UNL     1      -2.250   0.160   1.809  1.00  0.00    -0.283 OA
HETATM   21  O   UNL     1      -2.554  -2.576  -0.548  1.00  0.00    -0.355 OA
HETATM   22  C   UNL     1      -1.166  -2.928  -0.526  1.00  0.00     0.205 C 
HETATM   23  C   UNL     1      -0.237  -1.790  -0.276  1.00  0.00     0.041 C 
ENDBRANCH  16  17
ENDBRANCH  14  16
ENDBRANCH   1  14
TORSDOF 6
