REMARK  6 active torsions:
REMARK  status: ('A' for Active; 'I' for Inactive)
REMARK    1  A    between atoms: C_6  and  C_7 
REMARK    2  A    between atoms: C_7  and  O_8 
REMARK    3  A    between atoms: O_8  and  C_9 
REMARK    4  A    between atoms: C_9  and  C_11 
REMARK    5  A    between atoms: C_11  and  S_12 
REMARK    6  A    between atoms: S_12  and  C_13 
ROOT
HETATM    1  C   UNL     1      -1.603  -0.257   0.676  1.00  0.00     0.232 C 
ENDROOT
BRANCH   1   2
HETATM    2  C   UNL     1      -0.161  -0.398   0.337  1.00  0.00     0.114 A 
HETATM    3  C   UNL     1       0.809   0.588   0.000  1.00  0.00     0.089 A 
HETATM    4  C   UNL     1       0.809   1.588   0.000  1.00  0.00     0.075 C 
HETATM    5  N   UNL     1       1.932  -0.116  -0.297  1.00  0.00    -0.108 NA
HETATM    6  O   UNL     1       1.675  -1.444  -0.088  1.00  0.00    -0.106 OA
HETATM    7  N   UNL     1       0.386  -1.617   0.343  1.00  0.00    -0.105 NA
ENDBRANCH   1   2
BRANCH   1   8
HETATM    8  O   UNL     1      -2.430  -0.516  -0.465  1.00  0.00    -0.379 OA
BRANCH   8   9
HETATM    9  C   UNL     1      -3.176  -1.752  -0.430  1.00  0.00     0.127 C 
HETATM   10  C   UNL     1      -2.256  -2.974  -0.439  1.00  0.00     0.040 C 
BRANCH   9  11
HETATM   11  C   UNL     1      -4.200  -1.675  -1.592  1.00  0.00     0.113 C 
BRANCH  11  12
HETATM   12  S   UNL     1      -3.974  -2.763  -3.041  1.00  0.00    -0.099 SA
BRANCH  12  13
HETATM   13  C   UNL     1      -4.724  -4.232  -2.434  1.00  0.00     0.304 C 
HETATM   14  O   UNL     1      -5.274  -4.301  -1.345  1.00  0.00    -0.295 OA
ENDBRANCH  12  13
ENDBRANCH  11  12
ENDBRANCH   9  11
ENDBRANCH   8   9
ENDBRANCH   1   8
TORSDOF 6
