REMARK  6 active torsions:
REMARK  status: ('A' for Active; 'I' for Inactive)
REMARK    1  A    between atoms: S_2  and  C_3 
REMARK    2  A    between atoms: C_3  and  C_4 
REMARK    3  A    between atoms: C_4  and  O_5 
REMARK    4  A    between atoms: C_4  and  C_6 
REMARK    5  A    between atoms: C_6  and  N_7 
REMARK    6  A    between atoms: C_9  and  C_10 
ROOT
HETATM    1  N   UNL     1       1.084   0.291  -0.502  1.00  0.00    -0.258 N 
HETATM    2  C   UNL     1       0.388  -0.778  -0.974  1.00  0.00     0.150 A 
HETATM    3  C   UNL     1      -0.382  -1.150   0.108  1.00  0.00     0.128 A 
HETATM    4  N   UNL     1      -0.106  -0.335   1.173  1.00  0.00    -0.128 NA
HETATM    5  N   UNL     1       0.757   0.578   0.774  1.00  0.00    -0.066 NA
ENDROOT
BRANCH   1   6
HETATM    6  C   UNL     1       2.048   1.116  -1.200  1.00  0.00     0.184 C 
BRANCH   6   7
HETATM    7  C   UNL     1       3.217   1.552  -0.304  1.00  0.00     0.147 C 
BRANCH   7   8
HETATM    8  C   UNL     1       3.865   0.436   0.539  1.00  0.00     0.107 C 
BRANCH   8   9
HETATM    9  S   UNL     1       4.452  -0.982  -0.450  1.00  0.00    -0.171 SA
HETATM   10  C   UNL     1       3.505  -2.317   0.336  1.00  0.00     0.089 C 
ENDBRANCH   8   9
ENDBRANCH   7   8
BRANCH   7  11
HETATM   11  O   UNL     1       2.784   2.610   0.569  1.00  0.00    -0.393 OA
HETATM   12  H   UNL     1       2.033   2.260   1.097  1.00  0.00     0.210 HD
ENDBRANCH   7  11
ENDBRANCH   6   7
ENDBRANCH   1   6
BRANCH   3  13
HETATM   13  C   UNL     1      -1.600  -1.927   0.030  1.00  0.00     0.112 A 
HETATM   14  C   UNL     1      -2.815  -1.202   0.000  1.00  0.00     0.061 A 
HETATM   15  N   UNL     1      -3.968  -1.950  -0.066  1.00  0.00    -0.262 NA
HETATM   16  C   UNL     1      -2.815  -0.202   0.000  1.00  0.00     0.073 C 
HETATM   17  C   UNL     1      -3.864  -3.302  -0.091  1.00  0.00     0.136 A 
HETATM   18  C   UNL     1      -2.644  -3.950  -0.070  1.00  0.00     0.136 A 
HETATM   19  N   UNL     1      -1.480  -3.282  -0.020  1.00  0.00    -0.255 NA
ENDBRANCH   3  13
TORSDOF 6
