REMARK  7 active torsions:
REMARK  status: ('A' for Active; 'I' for Inactive)
REMARK    1  A    between atoms: C_3  and  C_5 
REMARK    2  A    between atoms: C_5  and  O_6 
REMARK    3  A    between atoms: O_6  and  C_7 
REMARK    4  A    between atoms: C_7  and  C_8 
REMARK    5  A    between atoms: C_8  and  C_9 
REMARK    6  A    between atoms: C_8  and  S_11 
REMARK    7  A    between atoms: C_9  and  O_10 
ROOT
HETATM    1  C   UNL     1       2.250   0.376  -2.280  1.00  0.00     0.184 C 
ENDROOT
BRANCH   1   2
HETATM    2  O   UNL     1       3.684   0.363  -2.193  1.00  0.00    -0.390 OA
BRANCH   2   3
HETATM    3  C   UNL     1       4.181  -0.618  -1.276  1.00  0.00     0.171 C 
BRANCH   3   4
HETATM    4  C   UNL     1       5.196   0.000   0.000  1.00  0.00    -0.003 A 
HETATM    5  C   UNL     1       6.062  -0.500   0.000  1.00  0.00    -0.002 A 
HETATM    6  C   UNL     1       6.062  -1.500   0.000  1.00  0.00     0.015 A 
HETATM    7  C   UNL     1       5.196   1.000   0.000  1.00  0.00     0.015 A 
ENDBRANCH   3   4
ENDBRANCH   2   3
ENDBRANCH   1   2
BRANCH   1   8
HETATM    8  C   UNL     1       1.680   0.850  -0.941  1.00  0.00     0.094 C 
BRANCH   8   9
HETATM    9  C   UNL     1       1.156   2.289  -0.990  1.00  0.00     0.181 C 
BRANCH   9  10
HETATM   10  O   UNL     1      -0.082   2.416  -1.653  1.00  0.00    -0.400 OA
HETATM   11  H   UNL     1      -0.367   3.354  -1.536  1.00  0.00     0.209 HD
ENDBRANCH   9  10
ENDBRANCH   8   9
BRANCH   8  12
HETATM   12  S   UNL     1       0.886  -0.571  -0.074  1.00  0.00    -0.164 SA
HETATM   13  C   UNL     1      -0.757   0.013   0.319  1.00  0.00     0.090 C 
ENDBRANCH   8  12
ENDBRANCH   1   8
TORSDOF 7
