REMARK  4 active torsions:
REMARK  status: ('A' for Active; 'I' for Inactive)
REMARK    1  A    between atoms: C_5  and  C_6 
REMARK    2  A    between atoms: C_6  and  N_8 
REMARK       I    between atoms: N_8  and  C_9 
REMARK    3  A    between atoms: C_9  and  O_11 
REMARK    4  A    between atoms: O_11  and  C_12 
ROOT
HETATM    1  N   UNL     1      -1.968   2.608   0.031  1.00  0.00    -0.330 N 
HETATM    2  C   UNL     1      -3.280   2.493   0.469  1.00  0.00     0.366 C 
HETATM    3  O   UNL     1      -3.860   3.527   0.775  1.00  0.00    -0.238 OA
HETATM    4  H   UNL     1      -1.764   3.577  -0.164  1.00  0.00     0.165 HD
ENDROOT
BRANCH   1   5
HETATM    5  C   UNL     1      -0.809   1.588   0.000  1.00  0.00     0.107 C 
HETATM    6  C   UNL     1       0.057   2.088   0.000  1.00  0.00     0.034 C 
BRANCH   5   7
HETATM    7  C   UNL     1      -1.183   0.830  -1.231  1.00  0.00     0.069 C 
HETATM    8  C   UNL     1      -2.158  -0.154  -1.265  1.00  0.00    -0.005 C 
HETATM    9  C   UNL     1      -1.741  -0.983  -0.165  1.00  0.00    -0.007 C 
HETATM   10  C   UNL     1      -0.309  -0.951   0.000  1.00  0.00     0.043 C 
HETATM   11  C   UNL     1       0.279  -1.760   0.000  1.00  0.00     0.033 C 
HETATM   12  S   UNL     1       0.105  -0.182  -1.794  1.00  0.00    -0.135 SA
ENDBRANCH   5   7
ENDBRANCH   1   5
BRANCH   2  13
HETATM   13  O   UNL     1      -3.718   1.208   0.599  1.00  0.00    -0.255 OA
BRANCH  13  14
HETATM   14  C   UNL     1      -5.009   0.525   0.539  1.00  0.00     0.152 A 
HETATM   15  C   UNL     1      -6.189   1.034  -0.170  1.00  0.00     0.205 A 
HETATM   16  C   UNL     1      -7.221   0.175  -0.294  1.00  0.00     0.057 A 
HETATM   17  O   UNL     1      -6.107   2.213  -0.595  1.00  0.00    -0.286 OA
HETATM   18  C   UNL     1      -7.189  -1.248   0.152  1.00  0.00     0.206 A 
HETATM   19  O   UNL     1      -6.014  -1.673   0.858  1.00  0.00    -0.356 OA
HETATM   20  C   UNL     1      -5.014  -0.749   0.979  1.00  0.00     0.176 A 
ENDBRANCH  13  14
ENDBRANCH   2  13
TORSDOF 4
