REMARK  3 active torsions:
REMARK  status: ('A' for Active; 'I' for Inactive)
REMARK    1  A    between atoms: N_4  and  C_5 
REMARK    2  A    between atoms: C_11  and  C_12 
REMARK    3  A    between atoms: C_12  and  O_14 
ROOT
HETATM    1  C   UNL     1      -2.896  -1.898   0.023  1.00  0.00     0.071 A 
HETATM    2  C   UNL     1      -2.935  -3.307   0.047  1.00  0.00     0.034 A 
HETATM    3  C   UNL     1      -4.148  -4.006   0.045  1.00  0.00     0.026 A 
HETATM    4  C   UNL     1      -5.342  -3.303   0.020  1.00  0.00     0.035 A 
HETATM    5 CL   UNL     1      -6.836  -4.158   0.011  1.00  0.00    -0.084 Cl
HETATM    6  C   UNL     1      -5.337  -1.916  -0.019  1.00  0.00     0.044 A 
HETATM    7  C   UNL     1      -4.120  -1.192  -0.021  1.00  0.00     0.067 A 
ENDROOT
BRANCH   1   8
HETATM    8  N   UNL     1      -1.617  -1.265   0.078  1.00  0.00    -0.246 N 
HETATM    9  C   UNL     1      -0.378  -1.865  -0.049  1.00  0.00     0.142 A 
HETATM   10  C   UNL     1       0.537  -0.847   0.076  1.00  0.00     0.065 A 
HETATM   11  C   UNL     1       2.009  -0.895  -0.024  1.00  0.00     0.073 C 
HETATM   12  N   UNL     1      -0.132   0.312   0.335  1.00  0.00    -0.163 NA
HETATM   13  N   UNL     1      -1.434   0.040   0.363  1.00  0.00     0.009 NA
ENDBRANCH   1   8
BRANCH   7  14
HETATM   14  C   UNL     1      -4.262   0.267  -0.230  1.00  0.00     0.178 C 
HETATM   15  O   UNL     1      -3.655   0.957  -1.026  1.00  0.00    -0.646 OA
BRANCH  14  16
HETATM   16  O   UNL     1      -5.294   0.764   0.485  1.00  0.00    -0.773 OA
HETATM   17  H   UNL     1      -5.348   1.701   0.201  1.00  0.00     0.167 HD
ENDBRANCH  14  16
ENDBRANCH   7  14
TORSDOF 3
