REMARK  6 active torsions:
REMARK  status: ('A' for Active; 'I' for Inactive)
REMARK    1  A    between atoms: C_2  and  C_3 
REMARK    2  A    between atoms: C_3  and  C_4 
REMARK    3  A    between atoms: C_4  and  C_5 
REMARK    4  A    between atoms: C_5  and  C_7 
REMARK    5  A    between atoms: C_7  and  O_9 
REMARK    6  A    between atoms: O_9  and  C_10 
ROOT
HETATM    1  C   UNL     1       0.562  -1.955   0.310  1.00  0.00     0.334 C 
HETATM    2  O   UNL     1       1.193  -1.522   1.257  1.00  0.00    -0.256 OA
ENDROOT
BRANCH   1   3
HETATM    3  C   UNL     1       0.460  -3.444  -0.015  1.00  0.00     0.224 C 
HETATM    4  O   UNL     1       1.462  -4.103  -0.250  1.00  0.00    -0.287 OA
BRANCH   3   5
HETATM    5  C   UNL     1      -0.957  -3.972  -0.037  1.00  0.00     0.093 C 
BRANCH   5   6
HETATM    6  C   UNL     1      -1.029  -5.494  -0.032  1.00  0.00     0.034 C 
BRANCH   6   7
HETATM    7  C   UNL     1      -2.424  -6.069  -0.068  1.00  0.00    -0.037 C 
HETATM    8  C   UNL     1      -3.585  -5.401  -0.095  1.00  0.00     0.007 C 
ENDBRANCH   6   7
ENDBRANCH   5   6
ENDBRANCH   3   5
ENDBRANCH   1   3
BRANCH   1   9
HETATM    9  O   UNL     1      -0.274  -1.305  -0.542  1.00  0.00    -0.267 OA
BRANCH   9  10
HETATM   10  C   UNL     1      -0.424   0.041  -0.205  1.00  0.00     0.147 C 
HETATM   11  C   UNL     1       0.668   1.008  -0.485  1.00  0.00     0.187 C 
HETATM   12  C   UNL     1       0.506   2.387   0.095  1.00  0.00     0.112 C 
HETATM   13  O   UNL     1       1.661   0.668  -1.121  1.00  0.00    -0.290 OA
HETATM   14  C   UNL     1      -0.962   2.760   0.023  1.00  0.00     0.182 C 
HETATM   15  O   UNL     1      -1.807   1.813   0.688  1.00  0.00    -0.360 OA
HETATM   16  C   UNL     1      -1.543   0.509   0.364  1.00  0.00     0.175 C 
ENDBRANCH   9  10
ENDBRANCH   1   9
TORSDOF 6
