REMARK  5 active torsions:
REMARK  status: ('A' for Active; 'I' for Inactive)
REMARK       I    between atoms: N_4  and  C_5 
REMARK    1  A    between atoms: C_5  and  C_7 
REMARK    2  A    between atoms: C_7  and  C_8 
REMARK    3  A    between atoms: C_8  and  C_9 
REMARK    4  A    between atoms: C_9  and  C_10 
REMARK    5  A    between atoms: C_10  and  C_11 
REMARK       I    between atoms: C_11  and  N_13 
ROOT
HETATM    1  C   UNL     1      -5.654  -4.976  -0.182  1.00  0.00     0.275 C 
HETATM    2  O   UNL     1      -6.870  -4.869  -0.270  1.00  0.00    -0.269 OA
HETATM    3  N   UNL     1      -4.940  -6.141  -0.163  1.00  0.00    -0.034 NA
HETATM    4  N   UNL     1      -5.668  -7.148  -0.125  1.00  0.00    -0.159 NA
HETATM    5  N   UNL     1      -6.291  -8.104  -0.085  1.00  0.00     0.068 N 
ENDROOT
BRANCH   1   6
HETATM    6  C   UNL     1      -4.737  -3.782  -0.069  1.00  0.00     0.108 C 
BRANCH   6   7
HETATM    7  C   UNL     1      -5.400  -2.400  -0.089  1.00  0.00     0.010 C 
BRANCH   7   8
HETATM    8  C   UNL     1      -4.278  -1.403   0.190  1.00  0.00     0.010 C 
BRANCH   8   9
HETATM    9  C   UNL     1      -4.581   0.079   0.130  1.00  0.00     0.105 C 
BRANCH   9  10
HETATM   10  C   UNL     1      -3.413   1.069   0.140  1.00  0.00     0.240 C 
HETATM   11  N   UNL     1      -2.083   0.592   0.130  1.00  0.00    -0.216 N 
HETATM   12  C   UNL     1      -1.495  -0.586   0.551  1.00  0.00     0.145 C 
HETATM   13  N   UNL     1      -1.115   1.347  -0.459  1.00  0.00     0.012 NA
HETATM   14  C   UNL     1      -0.290  -0.637  -0.107  1.00  0.00     0.066 C 
HETATM   15  C   UNL     1       0.645  -1.771  -0.247  1.00  0.00     0.073 C 
HETATM   16  N   UNL     1      -0.059   0.573  -0.687  1.00  0.00    -0.163 NA
HETATM   17  O   UNL     1      -3.612   2.280   0.051  1.00  0.00    -0.272 OA
ENDBRANCH   9  10
ENDBRANCH   8   9
ENDBRANCH   7   8
ENDBRANCH   6   7
ENDBRANCH   1   6
TORSDOF 5
