REMARK  2 active torsions:
REMARK  status: ('A' for Active; 'I' for Inactive)
REMARK    1  A    between atoms: C_2  and  O_4 
REMARK    2  A    between atoms: O_4  and  C_5 
ROOT
HETATM    1  C   UNL     1       3.065   0.718  -0.773  1.00  0.00     0.104 A 
HETATM    2  C   UNL     1       4.461   0.516  -0.690  1.00  0.00     0.070 A 
HETATM    3 CL   UNL     1       5.578   1.819  -0.944  1.00  0.00    -0.081 Cl
HETATM    4  C   UNL     1       4.998  -0.736  -0.408  1.00  0.00     0.053 A 
HETATM    5  C   UNL     1       4.162  -1.834  -0.211  1.00  0.00     0.063 A 
HETATM    6 CL   UNL     1       4.842  -3.375   0.135  1.00  0.00    -0.082 Cl
HETATM    7  C   UNL     1       2.782  -1.643  -0.312  1.00  0.00     0.068 A 
HETATM    8  N   UNL     1       1.754  -2.549  -0.154  1.00  0.00    -0.350 N 
HETATM    9  C   UNL     1       0.564  -1.934  -0.369  1.00  0.00     0.094 A 
HETATM   10  C   UNL     1       0.790  -0.622  -0.697  1.00  0.00     0.012 A 
HETATM   11  C   UNL     1       2.202  -0.397  -0.619  1.00  0.00     0.038 A 
HETATM   12  C   UNL     1      -0.395   0.221  -0.982  1.00  0.00     0.216 C 
HETATM   13  O   UNL     1      -1.634  -0.507  -1.221  1.00  0.00    -0.354 OA
HETATM   14  C   UNL     1      -1.709  -1.796  -0.723  1.00  0.00     0.192 C 
HETATM   15  C   UNL     1      -0.695  -2.572  -0.286  1.00  0.00     0.220 C 
HETATM   16  O   UNL     1      -0.646  -3.744   0.176  1.00  0.00    -0.284 OA
HETATM   17  H   UNL     1       1.805  -3.529   0.091  1.00  0.00     0.166 HD
ENDROOT
BRANCH   1  18
HETATM   18  O   UNL     1       2.555   1.961  -1.095  1.00  0.00    -0.344 OA
BRANCH  18  19
HETATM   19  C   UNL     1       2.474   2.841   0.043  1.00  0.00     0.121 C 
HETATM   20  C   UNL     1       2.702   4.269  -0.455  1.00  0.00     0.040 C 
HETATM   21  C   UNL     1       1.091   2.741   0.669  1.00  0.00     0.040 C 
ENDBRANCH  18  19
ENDBRANCH   1  18
TORSDOF 2
