REMARK  3 active torsions:
REMARK  status: ('A' for Active; 'I' for Inactive)
REMARK    1  A    between atoms: S_2  and  C_3 
REMARK    2  A    between atoms: C_3  and  C_5 
REMARK    3  A    between atoms: C_5  and  C_6 
ROOT
HETATM    1  C   UNL     1       1.076  -0.659   0.208  1.00  0.00     0.129 C 
HETATM    2  C   UNL     1       2.300  -1.561   0.145  1.00  0.00     0.034 C 
HETATM    3  C   UNL     1       1.737  -2.960   0.290  1.00  0.00     0.029 C 
HETATM    4  C   UNL     1       0.241  -2.797   0.109  1.00  0.00     0.168 C 
HETATM    5  O   UNL     1       0.034  -1.460  -0.356  1.00  0.00    -0.385 OA
ENDROOT
BRANCH   1   6
HETATM    6  C   UNL     1       1.261   0.632  -0.571  1.00  0.00     0.122 C 
BRANCH   6   7
HETATM    7  C   UNL     1      -0.021   1.430  -0.664  1.00  0.00     0.188 C 
HETATM    8  O   UNL     1      -0.846   1.290  -1.553  1.00  0.00    -0.285 OA
BRANCH   7   9
HETATM    9  S   UNL     1      -0.250   2.656   0.580  1.00  0.00    -0.097 SA
HETATM   10  C   UNL     1       0.880   3.907  -0.072  1.00  0.00     0.098 C 
ENDBRANCH   7   9
ENDBRANCH   6   7
ENDBRANCH   1   6
TORSDOF 3
