REMARK  4 active torsions:
REMARK  status: ('A' for Active; 'I' for Inactive)
REMARK    1  A    between atoms: N_1  and  C_2 
REMARK    2  A    between atoms: C_2  and  C_3 
REMARK    3  A    between atoms: C_3  and  O_4 
REMARK    4  A    between atoms: O_4  and  C_5 
ROOT
HETATM    1  C   UNL     1       0.515  -0.690   0.154  1.00  0.00     0.177 A 
HETATM    2  C   UNL     1      -0.920  -0.418   0.556  1.00  0.00     0.046 A 
HETATM    3  C   UNL     1      -0.391   0.150  -0.721  1.00  0.00     0.046 A 
ENDROOT
BRANCH   1   4
HETATM    4  N   UNL     1       1.549   0.030   0.935  1.00  0.00     0.090 N 
HETATM    5  H   UNL     1       2.313  -0.615   1.156  1.00  0.00     0.313 HD
HETATM    6  H   UNL     1       1.993   0.738   0.349  1.00  0.00     0.313 HD
ENDBRANCH   1   4
BRANCH   1   7
HETATM    7  C   UNL     1       0.848  -2.111  -0.293  1.00  0.00     0.219 C 
BRANCH   7   8
HETATM    8  O   UNL     1       2.272  -2.302  -0.250  1.00  0.00    -0.326 OA
BRANCH   8   9
HETATM    9  C   UNL     1       2.685  -3.584  -0.163  1.00  0.00     0.398 C 
HETATM   10  O   UNL     1       3.855  -3.913  -0.043  1.00  0.00    -0.276 OA
ENDBRANCH   8   9
ENDBRANCH   7   8
ENDBRANCH   1   7
TORSDOF 4
