REMARK  3 active torsions:
REMARK  status: ('A' for Active; 'I' for Inactive)
REMARK    1  A    between atoms: S_2  and  C_3 
REMARK    2  A    between atoms: C_3  and  C_5 
REMARK    3  A    between atoms: C_5  and  N_6 
ROOT
HETATM    1  C   UNL     1       1.533   0.034  -0.315  1.00  0.00     0.228 A 
HETATM    2  C   UNL     1       0.610  -0.665  -1.297  1.00  0.00     0.058 A 
HETATM    3  C   UNL     1       0.061  -0.164   0.008  1.00  0.00     0.031 A 
HETATM    4  C   UNL     1      -0.926   0.955   0.023  1.00  0.00     0.013 C 
ENDROOT
BRANCH   1   5
HETATM    5  C   UNL     1       2.095   1.387  -0.701  1.00  0.00     0.224 C 
HETATM    6  O   UNL     1       1.690   2.446  -0.243  1.00  0.00    -0.283 OA
BRANCH   5   7
HETATM    7  S   UNL     1       3.456   1.304  -1.820  1.00  0.00    -0.094 SA
HETATM    8  C   UNL     1       4.749   1.737  -0.636  1.00  0.00     0.099 C 
ENDBRANCH   5   7
ENDBRANCH   1   5
BRANCH   1   9
HETATM    9  N   UNL     1       2.502  -0.811   0.441  1.00  0.00     0.096 N 
HETATM   10  H   UNL     1       2.064  -1.679   0.747  1.00  0.00     0.314 HD
HETATM   11  H   UNL     1       3.267  -1.086  -0.180  1.00  0.00     0.314 HD
ENDBRANCH   1   9
TORSDOF 3
