REMARK  4 active torsions:
REMARK  status: ('A' for Active; 'I' for Inactive)
REMARK    1  A    between atoms: C_2  and  N_3 
REMARK    2  A    between atoms: N_3  and  C_4 
REMARK    3  A    between atoms: C_4  and  C_5 
REMARK    4  A    between atoms: C_6  and  C_7 
ROOT
HETATM    1  C   UNL     1       4.038   1.284  -0.098  1.00  0.00     0.216 C 
ENDROOT
BRANCH   1   2
HETATM    2  N   UNL     1       3.924   2.718  -0.023  1.00  0.00    -0.358 N 
HETATM    3  H   UNL     1       3.015   3.131   0.134  1.00  0.00     0.162 HD
BRANCH   2   4
HETATM    4  C   UNL     1       5.040   3.504   0.055  1.00  0.00     0.349 C 
HETATM    5  O   UNL     1       6.194   3.104   0.016  1.00  0.00    -0.284 OA
ENDBRANCH   2   4
ENDBRANCH   1   2
BRANCH   1   6
HETATM    6  C   UNL     1       2.730   0.691  -0.373  1.00  0.00    -0.087 C 
HETATM    7  C   UNL     1       1.656   0.187  -0.550  1.00  0.00    -0.100 C 
BRANCH   7   8
HETATM    8  C   UNL     1       0.374  -0.438  -0.696  1.00  0.00     0.065 A 
HETATM    9  C   UNL     1      -0.705  -0.099   0.299  1.00  0.00     0.018 A 
HETATM   10  C   UNL     1      -0.035  -1.441   0.352  1.00  0.00     0.018 A 
ENDBRANCH   7   8
ENDBRANCH   1   6
TORSDOF 4
