REMARK  5 active torsions:
REMARK  status: ('A' for Active; 'I' for Inactive)
REMARK    1  A    between atoms: N_2  and  C_3 
REMARK    2  A    between atoms: C_3  and  C_4 
REMARK    3  A    between atoms: C_5  and  C_6 
REMARK    4  A    between atoms: C_6  and  N_7 
REMARK    5  A    between atoms: N_7  and  C_9 
ROOT
HETATM    1  C   UNL     1       4.257   0.541  -0.594  1.00  0.00    -0.010 C 
HETATM    2  C   UNL     1       3.894   0.279   0.700  1.00  0.00    -0.010 C 
ENDROOT
BRANCH   2   3
HETATM    3  C   UNL     1       2.665  -0.524   0.948  1.00  0.00     0.151 C 
BRANCH   3   4
HETATM    4  N   UNL     1       1.732   0.000   0.000  1.00  0.00    -0.360 N 
HETATM    5  C   UNL     1       1.732   1.000   0.000  1.00  0.00     0.152 C 
BRANCH   4   6
HETATM    6  C   UNL     1       0.711  -0.822  -0.484  1.00  0.00     0.350 C 
HETATM    7  O   UNL     1      -0.302  -0.469  -1.080  1.00  0.00    -0.284 OA
ENDBRANCH   4   6
ENDBRANCH   3   4
ENDBRANCH   2   3
BRANCH   1   8
HETATM    8  C   UNL     1       5.653   0.422  -1.001  1.00  0.00     0.140 C 
BRANCH   8   9
HETATM    9  N   UNL     1       6.062  -0.500   0.000  1.00  0.00    -0.422 N 
HETATM   10  C   UNL     1       6.062  -1.500   0.000  1.00  0.00     0.140 C 
HETATM   11  H   UNL     1       6.678   0.015   0.630  1.00  0.00     0.153 HD
ENDBRANCH   8   9
ENDBRANCH   1   8
TORSDOF 5
