REMARK  3 active torsions:
REMARK  status: ('A' for Active; 'I' for Inactive)
REMARK    1  A    between atoms: S_2  and  C_3 
REMARK    2  A    between atoms: C_4  and  C_5 
REMARK    3  A    between atoms: C_5  and  S_7 
ROOT
HETATM    1  C   UNL     1       3.631   0.848  -0.654  1.00  0.00    -0.002 C 
HETATM    2  C   UNL     1       2.698   1.522   0.054  1.00  0.00     0.109 C 
ENDROOT
BRANCH   2   3
HETATM    3  C   UNL     1       1.442   1.659  -0.703  1.00  0.00     0.194 C 
HETATM    4  O   UNL     1       0.891   2.715  -0.898  1.00  0.00    -0.285 OA
BRANCH   3   5
HETATM    5  S   UNL     1       0.694   0.095  -1.096  1.00  0.00    -0.096 SA
HETATM    6  C   UNL     1      -0.744   0.192  -0.031  1.00  0.00     0.098 C 
ENDBRANCH   3   5
ENDBRANCH   2   3
BRANCH   1   7
HETATM    7  S   UNL     1       4.330  -0.500   0.000  1.00  0.00    -0.277 SA
HETATM    8  C   UNL     1       4.330  -1.500   0.000  1.00  0.00     0.259 C 
ENDBRANCH   1   7
TORSDOF 3
