REMARK  3 active torsions:
REMARK  status: ('A' for Active; 'I' for Inactive)
REMARK    1  A    between atoms: C_2  and  S_3 
REMARK    2  A    between atoms: S_3  and  C_4 
REMARK    3  A    between atoms: C_8  and  C_9 
ROOT
HETATM    1  C   UNL     1      -1.287  -0.867   0.283  1.00  0.00     0.008 A 
HETATM    2  C   UNL     1      -2.463  -0.117   0.326  1.00  0.00     0.019 A 
HETATM    3  C   UNL     1      -2.428   1.256   0.076  1.00  0.00     0.002 A 
HETATM    4  C   UNL     1      -1.215   1.899  -0.187  1.00  0.00     0.007 A 
HETATM    5  C   UNL     1      -0.010   1.182  -0.204  1.00  0.00    -0.053 A 
HETATM    6  C   UNL     1      -0.077  -0.209   0.006  1.00  0.00     0.026 A 
ENDROOT
BRANCH   5   7
HETATM    7  C   UNL     1       1.309   1.879  -0.491  1.00  0.00     0.018 C 
HETATM    8  C   UNL     1       2.562   1.149   0.019  1.00  0.00     0.009 C 
HETATM    9  C   UNL     1       3.664   2.201   0.098  1.00  0.00     0.001 C 
HETATM   10  C   UNL     1       2.968   3.554   0.042  1.00  0.00     0.001 C 
HETATM   11  C   UNL     1       1.477   3.261   0.155  1.00  0.00     0.009 C 
ENDBRANCH   5   7
BRANCH   1  12
HETATM   12  S   UNL     1      -1.207  -2.607   0.679  1.00  0.00    -0.062 SA
BRANCH  12  13
HETATM   13  C   UNL     1      -2.677  -3.284   0.005  1.00  0.00     0.309 C 
HETATM   14  O   UNL     1      -2.956  -4.472   0.147  1.00  0.00    -0.295 OA
ENDBRANCH  12  13
ENDBRANCH   1  12
TORSDOF 3
