REMARK  3 active torsions:
REMARK  status: ('A' for Active; 'I' for Inactive)
REMARK    1  A    between atoms: O_2  and  C_3 
REMARK    2  A    between atoms: C_3  and  N_4 
REMARK       I    between atoms: N_4  and  C_5 
REMARK    3  A    between atoms: C_5  and  S_7 
ROOT
HETATM    1  N   UNL     1       2.085   0.045  -0.179  1.00  0.00    -0.331 N 
HETATM    2  C   UNL     1       1.110   0.987  -0.205  1.00  0.00     0.281 C 
HETATM    3  O   UNL     1       1.146   2.092   0.309  1.00  0.00    -0.260 OA
HETATM    4  H   UNL     1       1.850  -0.862  -0.545  1.00  0.00     0.165 HD
ENDROOT
BRANCH   1   5
HETATM    5  C   UNL     1       3.273   0.217   0.603  1.00  0.00     0.293 C 
BRANCH   5   6
HETATM    6  O   UNL     1       4.330  -0.500   0.000  1.00  0.00    -0.377 OA
HETATM    7  C   UNL     1       4.330  -1.500   0.000  1.00  0.00     0.203 C 
ENDBRANCH   5   6
ENDBRANCH   1   5
BRANCH   2   8
HETATM    8  S   UNL     1      -0.289   0.351  -1.031  1.00  0.00    -0.074 SA
HETATM    9  C   UNL     1      -1.539   0.916   0.140  1.00  0.00     0.100 C 
ENDBRANCH   2   8
TORSDOF 3
