REMARK  3 active torsions:
REMARK  status: ('A' for Active; 'I' for Inactive)
REMARK    1  A    between atoms: N_4  and  C_5 
REMARK    2  A    between atoms: C_9  and  C_10 
REMARK    3  A    between atoms: C_10  and  O_12 
ROOT
HETATM    1  C   UNL     1      -2.980  -2.015  -0.339  1.00  0.00     0.129 C 
HETATM    2  C   UNL     1      -3.050  -3.467   0.073  1.00  0.00    -0.004 C 
HETATM    3  C   UNL     1      -4.227  -4.110   0.077  1.00  0.00    -0.028 C 
HETATM    4  C   UNL     1      -5.492  -3.374  -0.250  1.00  0.00     0.042 C 
HETATM    5  C   UNL     1      -5.496  -1.983   0.392  1.00  0.00     0.089 C 
HETATM    6  C   UNL     1      -4.206  -1.189   0.108  1.00  0.00     0.046 C 
ENDROOT
BRANCH   1   7
HETATM    7  N   UNL     1      -1.729  -1.312  -0.020  1.00  0.00    -0.275 N 
HETATM    8  C   UNL     1      -0.495  -1.808   0.293  1.00  0.00     0.137 C 
HETATM    9  C   UNL     1       0.362  -0.782  -0.044  1.00  0.00     0.065 C 
HETATM   10  C   UNL     1       1.826  -0.772  -0.204  1.00  0.00     0.073 C 
HETATM   11  N   UNL     1      -0.365   0.324  -0.372  1.00  0.00    -0.164 NA
HETATM   12  N   UNL     1      -1.644  -0.004  -0.343  1.00  0.00     0.005 NA
ENDBRANCH   1   7
BRANCH   5  13
HETATM   13  C   UNL     1      -6.702  -1.159  -0.003  1.00  0.00     0.144 C 
HETATM   14  O   UNL     1      -6.790   0.055   0.028  1.00  0.00    -0.650 OA
BRANCH  13  15
HETATM   15  O   UNL     1      -7.782  -1.896  -0.340  1.00  0.00    -0.776 OA
HETATM   16  H   UNL     1      -8.474  -1.222  -0.518  1.00  0.00     0.167 HD
ENDBRANCH  13  15
ENDBRANCH   5  13
TORSDOF 3
