REMARK  3 active torsions:
REMARK  status: ('A' for Active; 'I' for Inactive)
REMARK    1  A    between atoms: N_2  and  C_3 
REMARK    2  A    between atoms: N_2  and  C_5 
REMARK    3  A    between atoms: C_5  and  C_6 
ROOT
HETATM    1  C   UNL     1       1.732   0.000   0.000  1.00  0.00     0.152 C 
HETATM    2  N   UNL     1       1.732   1.000   0.000  1.00  0.00    -0.358 N 
ENDROOT
BRANCH   2   3
HETATM    3  C   UNL     1       2.857   1.812  -0.254  1.00  0.00     0.350 C 
HETATM    4  O   UNL     1       2.842   3.038  -0.306  1.00  0.00    -0.284 OA
ENDBRANCH   2   3
BRANCH   2   5
HETATM    5  C   UNL     1       0.462   1.780   0.118  1.00  0.00     0.195 C 
BRANCH   5   6
HETATM    6  C   UNL     1      -0.878   1.065  -0.077  1.00  0.00     0.370 C 
HETATM    7  F   UNL     1      -1.889   1.963   0.059  1.00  0.00    -0.213 F 
HETATM    8  F   UNL     1      -1.064   0.133   0.892  1.00  0.00    -0.213 F 
ENDBRANCH   5   6
ENDBRANCH   2   5
TORSDOF 3
