REMARK  6 active torsions:
REMARK  status: ('A' for Active; 'I' for Inactive)
REMARK    1  A    between atoms: S_2  and  C_3 
REMARK    2  A    between atoms: C_3  and  C_4 
REMARK    3  A    between atoms: C_4  and  O_5 
REMARK    4  A    between atoms: C_4  and  C_6 
REMARK    5  A    between atoms: C_6  and  N_7 
REMARK    6  A    between atoms: C_9  and  C_10 
ROOT
HETATM    1  N   UNL     1      -0.969  -0.118  -0.598  1.00  0.00    -0.280 N 
HETATM    2  C   UNL     1      -1.769  -1.117  -1.085  1.00  0.00     0.142 C 
HETATM    3  C   UNL     1      -2.998  -0.841  -0.532  1.00  0.00     0.104 C 
HETATM    4  N   UNL     1      -2.957   0.403   0.041  1.00  0.00    -0.158 NA
HETATM    5  N   UNL     1      -1.704   0.846  -0.017  1.00  0.00     0.005 NA
ENDROOT
BRANCH   1   6
HETATM    6  C   UNL     1       0.411  -0.337  -0.225  1.00  0.00     0.178 C 
BRANCH   6   7
HETATM    7  C   UNL     1       1.311   0.880  -0.012  1.00  0.00     0.146 C 
BRANCH   7   8
HETATM    8  C   UNL     1       2.680   0.442   0.550  1.00  0.00     0.107 C 
BRANCH   8   9
HETATM    9  S   UNL     1       3.647  -0.684  -0.522  1.00  0.00    -0.171 SA
HETATM   10  C   UNL     1       3.176  -2.291   0.181  1.00  0.00     0.089 C 
ENDBRANCH   8   9
ENDBRANCH   7   8
BRANCH   7  11
HETATM   11  O   UNL     1       0.759   1.785   0.953  1.00  0.00    -0.393 OA
HETATM   12  H   UNL     1      -0.172   1.967   0.698  1.00  0.00     0.210 HD
ENDBRANCH   7  11
ENDBRANCH   6   7
ENDBRANCH   1   6
BRANCH   3  13
HETATM   13  C   UNL     1      -4.084  -1.791  -0.398  1.00  0.00     0.034 A 
HETATM   14  C   UNL     1      -5.404  -1.375  -0.253  1.00  0.00     0.129 A 
HETATM   15  C   UNL     1      -6.425  -2.304  -0.028  1.00  0.00     0.043 A 
HETATM   16  F   UNL     1      -5.735  -0.077  -0.322  1.00  0.00    -0.205 F 
HETATM   17  C   UNL     1      -6.133  -3.662   0.061  1.00  0.00     0.003 A 
HETATM   18  C   UNL     1      -4.821  -4.097  -0.086  1.00  0.00     0.001 A 
HETATM   19  C   UNL     1      -3.803  -3.166  -0.320  1.00  0.00     0.017 A 
ENDBRANCH   3  13
TORSDOF 6
