REMARK  5 active torsions:
REMARK  status: ('A' for Active; 'I' for Inactive)
REMARK    1  A    between atoms: O_2  and  C_3 
REMARK    2  A    between atoms: C_6  and  C_7 
REMARK    3  A    between atoms: C_7  and  N_8 
REMARK       I    between atoms: N_8  and  C_9 
REMARK    4  A    between atoms: C_9  and  C_11 
REMARK    5  A    between atoms: C_11  and  N_12 
ROOT
HETATM    1  N   UNL     1      -3.465   2.737  -1.448  1.00  0.00    -0.355 N 
HETATM    2  C   UNL     1      -4.096   1.738  -2.130  1.00  0.00     0.237 C 
HETATM    3  O   UNL     1      -4.408   1.950  -3.308  1.00  0.00    -0.272 OA
HETATM    4  H   UNL     1      -3.334   3.580  -1.995  1.00  0.00     0.162 HD
ENDROOT
BRANCH   1   5
HETATM    5  C   UNL     1      -2.924   2.728  -0.098  1.00  0.00     0.161 C 
BRANCH   5   6
HETATM    6  C   UNL     1      -1.837   1.694   0.045  1.00  0.00    -0.040 A 
HETATM    7  C   UNL     1      -1.899   0.737   1.065  1.00  0.00     0.011 A 
HETATM    8  C   UNL     1      -1.006  -0.332   1.076  1.00  0.00     0.037 A 
HETATM    9  C   UNL     1      -0.018  -0.426   0.097  1.00  0.00     0.068 A 
HETATM   10  C   UNL     1       0.077   0.539  -0.903  1.00  0.00     0.037 A 
HETATM   11  C   UNL     1      -0.815   1.608  -0.916  1.00  0.00     0.011 A 
BRANCH   9  12
HETATM   12  O   UNL     1       0.770  -1.540   0.131  1.00  0.00    -0.356 OA
HETATM   13  C   UNL     1       2.163  -1.253   0.044  1.00  0.00     0.210 C 
ENDBRANCH   9  12
ENDBRANCH   5   6
ENDBRANCH   1   5
BRANCH   2  14
HETATM   14  C   UNL     1      -4.400   0.405  -1.481  1.00  0.00     0.248 C 
BRANCH  14  15
HETATM   15  N   UNL     1      -5.578   0.500  -0.655  1.00  0.00    -0.274 N 
HETATM   16  N   UNL     1      -5.473   0.702   0.670  1.00  0.00     0.005 NA
HETATM   17  N   UNL     1      -6.699   0.863   1.146  1.00  0.00    -0.164 NA
HETATM   18  C   UNL     1      -7.580   0.700   0.111  1.00  0.00     0.065 A 
HETATM   19  C   UNL     1      -6.881   0.432  -1.043  1.00  0.00     0.136 A 
HETATM   20  C   UNL     1      -9.032   0.834   0.326  1.00  0.00     0.073 C 
ENDBRANCH  14  15
ENDBRANCH   2  14
TORSDOF 5
