REMARK  0 active torsions:
REMARK  status: ('A' for Active; 'I' for Inactive)
ROOT
HETATM    1  C   UNL     1       3.500   0.866   0.000  1.00  0.00     0.001 C 
HETATM    2  C   UNL     1       2.500   0.866   0.000  1.00  0.00     0.084 A 
HETATM    3  O   UNL     1       2.000   0.000   0.000  1.00  0.00     0.000 OA
HETATM    4  C   UNL     1       1.000   0.000   0.000  1.00  0.00     0.081 A 
HETATM    5  C   UNL     1       1.000   1.000   0.000  1.00  0.00     0.142 A 
HETATM    6  O   UNL     1      -0.037   1.844  -0.000  1.00  0.00    -0.323 OA
HETATM    7  S   UNL     1       1.866   1.500   0.000  1.00  0.00    -0.137 SA
HETATM    8  C   UNL     1       1.866   2.500   0.000  1.00  0.00     0.137 A 
HETATM    9  C   UNL     1       0.000   0.000   0.000  1.00  0.00     0.140 A 
HETATM   10  N   UNL     1      -0.280  -1.420   0.000  1.00  0.00    -0.418 N 
HETATM   11  C   UNL     1       1.000  -1.000   0.000  1.00  0.00     0.140 A 
HETATM   12  H   UNL     1      -0.950  -2.164   0.000  1.00  0.00     0.153 HD
ENDROOT
TORSDOF 0
