REMARK  4 active torsions:
REMARK  status: ('A' for Active; 'I' for Inactive)
REMARK    1  A    between atoms: S_2  and  C_3 
REMARK    2  A    between atoms: C_3  and  C_5 
REMARK    3  A    between atoms: C_5  and  N_6 
REMARK    4  A    between atoms: N_6  and  N_8 
ROOT
HETATM    1  C   UNL     1       1.190   0.998  -1.363  1.00  0.00     0.236 C 
ENDROOT
BRANCH   1   2
HETATM    2  C   UNL     1       2.660   1.330  -1.523  1.00  0.00     0.174 C 
HETATM    3  O   UNL     1       3.222   1.712  -2.535  1.00  0.00    -0.287 OA
BRANCH   2   4
HETATM    4  S   UNL     1       3.464   1.000   0.000  1.00  0.00    -0.231 SA
HETATM    5  C   UNL     1       3.464   0.000   0.000  1.00  0.00     0.270 C 
ENDBRANCH   2   4
ENDBRANCH   1   2
BRANCH   1   6
HETATM    6  N   UNL     1       0.866   1.500   0.000  1.00  0.00    -0.266 N 
HETATM    7  C   UNL     1       0.866   2.500   0.000  1.00  0.00     0.177 C 
BRANCH   6   8
HETATM    8  N   UNL     1      -0.044   0.686   0.680  1.00  0.00    -0.041 N 
HETATM    9  O   UNL     1      -0.894   1.236   1.386  1.00  0.00    -0.517 OA
HETATM   10  O   UNL     1       0.105  -0.531   0.528  1.00  0.00    -0.517 OA
ENDBRANCH   6   8
ENDBRANCH   1   6
TORSDOF 4
