REMARK  8 active torsions:
REMARK  status: ('A' for Active; 'I' for Inactive)
REMARK    1  A    between atoms: C_3  and  C_4 
REMARK    2  A    between atoms: C_7  and  O_8 
REMARK    3  A    between atoms: O_8  and  C_9 
REMARK    4  A    between atoms: C_9  and  C_10 
REMARK    5  A    between atoms: C_10  and  C_11 
REMARK    6  A    between atoms: C_10  and  S_13 
REMARK    7  A    between atoms: C_11  and  O_12 
REMARK    8  A    between atoms: C_15  and  O_16 
ROOT
HETATM    1  C   UNL     1      -1.005  -0.984  -1.483  1.00  0.00    -0.034 C 
HETATM    2  C   UNL     1      -1.939  -0.213  -2.192  1.00  0.00     0.014 C 
HETATM    3  C   UNL     1      -1.643   1.095  -2.579  1.00  0.00     0.040 C 
HETATM    4  C   UNL     1      -0.472   1.680  -2.110  1.00  0.00     0.102 C 
HETATM    5  C   UNL     1       0.288   0.968  -1.149  1.00  0.00     0.102 C 
HETATM    6  C   UNL     1       0.149  -0.395  -1.006  1.00  0.00     0.051 C 
ENDROOT
BRANCH   4   7
HETATM    7  O   UNL     1       0.132   2.639  -2.897  1.00  0.00    -0.347 OA
BRANCH   7   8
HETATM    8  C   UNL     1      -0.384   3.980  -2.856  1.00  0.00     0.190 C 
BRANCH   8   9
HETATM    9  C   UNL     1       0.318   4.661  -1.699  1.00  0.00     0.063 C 
BRANCH   9  10
HETATM   10  C   UNL     1       0.942   6.070  -1.932  1.00  0.00     0.178 C 
BRANCH  10  11
HETATM   11  O   UNL     1       0.011   7.056  -2.339  1.00  0.00    -0.400 OA
HETATM   12  H   UNL     1       0.475   7.913  -2.270  1.00  0.00     0.209 HD
ENDBRANCH  10  11
ENDBRANCH   9  10
BRANCH   9  13
HETATM   13  S   UNL     1      -0.866   4.500   0.000  1.00  0.00    -0.287 SA
HETATM   14  C   UNL     1      -0.866   5.500   0.000  1.00  0.00     0.249 C 
ENDBRANCH   9  13
ENDBRANCH   8   9
ENDBRANCH   7   8
ENDBRANCH   4   7
BRANCH   5  15
HETATM   15  O   UNL     1       0.866   1.500   0.000  1.00  0.00    -0.353 OA
HETATM   16  C   UNL     1       0.866   2.500   0.000  1.00  0.00     0.210 C 
ENDBRANCH   5  15
BRANCH   1  17
HETATM   17  C   UNL     1      -1.207  -2.379  -1.077  1.00  0.00     0.007 C 
HETATM   18  C   UNL     1      -2.172  -2.801  -0.267  1.00  0.00    -0.030 C 
HETATM   19  C   UNL     1      -3.281  -1.999   0.335  1.00  0.00     0.036 C 
ENDBRANCH   1  17
TORSDOF 8
