REMARK  2 active torsions:
REMARK  status: ('A' for Active; 'I' for Inactive)
REMARK    1  A    between atoms: N_2  and  C_3 
REMARK    2  A    between atoms: N_2  and  C_5 
ROOT
HETATM    1  C   UNL     1      -0.532  -0.543   0.059  1.00  0.00     0.150 A 
HETATM    2  C   UNL     1      -1.908  -0.432   0.022  1.00  0.00     0.058 A 
HETATM    3  C   UNL     1      -2.210   0.954   0.012  1.00  0.00     0.029 A 
HETATM    4  C   UNL     1      -1.001   1.603   0.067  1.00  0.00     0.144 A 
HETATM    5  O   UNL     1       0.014   0.705   0.105  1.00  0.00    -0.306 OA
ENDROOT
BRANCH   1   6
HETATM    6  N   UNL     1       0.303  -1.654   0.026  1.00  0.00    -0.310 N 
HETATM    7  C   UNL     1      -0.219  -3.006  -0.062  1.00  0.00     0.161 C 
BRANCH   6   8
HETATM    8  C   UNL     1       1.683  -1.480   0.087  1.00  0.00     0.356 C 
HETATM    9  O   UNL     1       2.349  -0.456   0.185  1.00  0.00    -0.283 OA
ENDBRANCH   6   8
ENDBRANCH   1   6
TORSDOF 2
