REMARK  3 active torsions:
REMARK  status: ('A' for Active; 'I' for Inactive)
REMARK    1  A    between atoms: S_2  and  C_3 
REMARK    2  A    between atoms: C_3  and  C_5 
REMARK    3  A    between atoms: C_8  and  O_9 
ROOT
HETATM    1  C   UNL     1      -0.290  -0.355   0.376  1.00  0.00     0.069 C 
HETATM    2  C   UNL     1      -0.813  -1.664  -0.216  1.00  0.00     0.015 C 
HETATM    3  C   UNL     1      -2.334  -1.605  -0.092  1.00  0.00     0.032 C 
HETATM    4  C   UNL     1      -2.667  -0.186   0.358  1.00  0.00     0.119 C 
HETATM    5  C   UNL     1      -1.415   0.628   0.066  1.00  0.00     0.044 C 
ENDROOT
BRANCH   1   6
HETATM    6  C   UNL     1       1.033   0.062  -0.236  1.00  0.00     0.189 C 
HETATM    7  O   UNL     1       1.145   0.780  -1.219  1.00  0.00    -0.285 OA
BRANCH   6   8
HETATM    8  S   UNL     1       2.462  -0.561   0.587  1.00  0.00    -0.097 SA
HETATM    9  C   UNL     1       2.575  -2.163  -0.235  1.00  0.00     0.098 C 
ENDBRANCH   6   8
ENDBRANCH   1   6
BRANCH   4  10
HETATM   10  O   UNL     1      -3.785   0.309  -0.350  1.00  0.00    -0.396 OA
HETATM   11  H   UNL     1      -3.872   1.258  -0.148  1.00  0.00     0.210 HD
ENDBRANCH   4  10
TORSDOF 3
