REMARK  3 active torsions:
REMARK  status: ('A' for Active; 'I' for Inactive)
REMARK    1  A    between atoms: S_2  and  C_3 
REMARK    2  A    between atoms: C_3  and  C_5 
REMARK    3  A    between atoms: C_9  and  N_10 
ROOT
HETATM    1  C   UNL     1       0.796   0.493  -0.284  1.00  0.00     0.085 A 
HETATM    2  C   UNL     1       1.748  -0.534  -0.504  1.00  0.00     0.158 A 
HETATM    3  N   UNL     1       1.244  -1.763  -0.359  1.00  0.00    -0.184 NA
HETATM    4  N   UNL     1      -0.044  -1.533  -0.058  1.00  0.00    -0.262 N 
HETATM    5  C   UNL     1      -0.366  -0.204  -0.000  1.00  0.00     0.131 A 
HETATM    6  H   UNL     1      -0.653  -2.325   0.103  1.00  0.00     0.191 HD
ENDROOT
BRANCH   1   7
HETATM    7  C   UNL     1       0.933   1.939  -0.329  1.00  0.00     0.224 C 
HETATM    8  O   UNL     1       0.084   2.718   0.084  1.00  0.00    -0.280 OA
BRANCH   7   9
HETATM    9  S   UNL     1       2.397   2.551  -1.091  1.00  0.00    -0.091 SA
HETATM   10  C   UNL     1       3.546   2.374   0.288  1.00  0.00     0.099 C 
ENDBRANCH   7   9
ENDBRANCH   1   7
BRANCH   5  11
HETATM   11  N   UNL     1      -1.617   0.206   0.285  1.00  0.00    -0.384 N 
HETATM   12  H   UNL     1      -1.847   1.202   0.261  1.00  0.00     0.157 HD
HETATM   13  H   UNL     1      -2.431  -0.402   0.304  1.00  0.00     0.157 HD
ENDBRANCH   5  11
TORSDOF 3
