REMARK  2 active torsions:
REMARK  status: ('A' for Active; 'I' for Inactive)
REMARK    1  A    between atoms: N_4  and  C_5 
REMARK    2  A    between atoms: C_12  and  O_13 
ROOT
HETATM    1  C   UNL     1      -2.449   0.437   0.210  1.00  0.00     0.134 C 
HETATM    2  C   UNL     1      -3.618  -0.232  -0.541  1.00  0.00     0.033 C 
HETATM    3  C   UNL     1      -4.906  -0.305   0.270  1.00  0.00     0.029 C 
HETATM    4  C   UNL     1      -5.930   0.767   0.079  1.00  0.00    -0.031 C 
HETATM    5  C   UNL     1      -5.838   2.051  -0.287  1.00  0.00    -0.031 C 
HETATM    6  C   UNL     1      -4.671   2.954  -0.541  1.00  0.00     0.029 C 
HETATM    7  C   UNL     1      -3.431   2.840   0.340  1.00  0.00     0.037 C 
HETATM    8  C   UNL     1      -2.298   1.937  -0.160  1.00  0.00     0.143 C 
ENDROOT
BRANCH   1   9
HETATM    9  N   UNL     1      -1.216  -0.339  -0.012  1.00  0.00    -0.276 N 
HETATM   10  C   UNL     1      -0.970  -1.637   0.341  1.00  0.00     0.136 A 
HETATM   11  C   UNL     1       0.347  -1.842  -0.012  1.00  0.00     0.065 A 
HETATM   12  C   UNL     1       1.182  -3.055   0.082  1.00  0.00     0.073 C 
HETATM   13  N   UNL     1       0.855  -0.684  -0.533  1.00  0.00    -0.164 NA
HETATM   14  N   UNL     1      -0.112   0.220  -0.548  1.00  0.00     0.005 NA
ENDBRANCH   1   9
BRANCH   8  15
HETATM   15  O   UNL     1      -1.121   2.484   0.468  1.00  0.00    -0.393 OA
HETATM   16  H   UNL     1      -0.351   2.007   0.088  1.00  0.00     0.210 HD
ENDBRANCH   8  15
TORSDOF 2
