REMARK  3 active torsions:
REMARK  status: ('A' for Active; 'I' for Inactive)
REMARK    1  A    between atoms: S_2  and  C_3 
REMARK       I    between atoms: C_3  and  N_5 
REMARK    2  A    between atoms: N_5  and  C_6 
REMARK    3  A    between atoms: C_7  and  C_8 
ROOT
HETATM    1  C   UNL     1       0.721   0.682  -0.048  1.00  0.00     0.092 C 
HETATM    2  C   UNL     1       0.745  -0.659  -0.032  1.00  0.00     0.028 C 
ENDROOT
BRANCH   2   3
HETATM    3  C   UNL     1      -0.437  -1.544   0.007  1.00  0.00    -0.032 A 
HETATM    4  C   UNL     1      -1.760  -1.078   0.018  1.00  0.00     0.053 A 
HETATM    5  C   UNL     1      -2.824  -1.979   0.032  1.00  0.00     0.117 A 
HETATM    6  C   UNL     1      -2.608  -3.350   0.035  1.00  0.00     0.042 A 
HETATM    7  F   UNL     1      -4.079  -1.513   0.037  1.00  0.00    -0.206 F 
HETATM    8  C   UNL     1      -1.304  -3.833   0.028  1.00  0.00     0.004 A 
HETATM    9  C   UNL     1      -0.229  -2.936   0.015  1.00  0.00     0.011 A 
ENDBRANCH   2   3
BRANCH   1  10
HETATM   10  N   UNL     1       1.865   1.444  -0.128  1.00  0.00    -0.328 N 
HETATM   11  C   UNL     1       1.839   2.826  -0.127  1.00  0.00     0.283 C 
HETATM   12  O   UNL     1       0.817   3.491  -0.027  1.00  0.00    -0.260 OA
HETATM   13  H   UNL     1       2.748   0.974  -0.233  1.00  0.00     0.169 HD
BRANCH  11  14
HETATM   14  S   UNL     1       3.377   3.637  -0.336  1.00  0.00    -0.073 SA
HETATM   15  C   UNL     1       4.660   2.466   0.098  1.00  0.00     0.100 C 
ENDBRANCH  11  14
ENDBRANCH   1  10
TORSDOF 3
