REMARK  4 active torsions:
REMARK  status: ('A' for Active; 'I' for Inactive)
REMARK    1  A    between atoms: N_4  and  C_5 
REMARK    2  A    between atoms: C_5  and  C_6 
REMARK    3  A    between atoms: C_9  and  O_10 
REMARK    4  A    between atoms: O_10  and  C_11 
ROOT
HETATM    1  C   UNL     1      -4.490   0.961   0.158  1.00  0.00    -0.039 A 
HETATM    2  C   UNL     1      -4.740  -0.324  -0.354  1.00  0.00     0.011 A 
HETATM    3  C   UNL     1      -5.972  -0.950  -0.151  1.00  0.00     0.037 A 
HETATM    4  C   UNL     1      -6.994  -0.270   0.505  1.00  0.00     0.078 A 
HETATM    5  C   UNL     1      -6.784   1.019   0.988  1.00  0.00     0.037 A 
HETATM    6  C   UNL     1      -5.543   1.634   0.803  1.00  0.00     0.011 A 
ENDROOT
BRANCH   1   7
HETATM    7  C   UNL     1      -3.166   1.685   0.002  1.00  0.00     0.184 C 
BRANCH   7   8
HETATM    8  N   UNL     1      -2.002   0.839  -0.209  1.00  0.00    -0.279 N 
HETATM    9  C   UNL     1      -1.617  -0.294   0.452  1.00  0.00     0.136 A 
HETATM   10  C   UNL     1      -0.501  -0.716  -0.236  1.00  0.00     0.065 A 
HETATM   11  C   UNL     1       0.291  -1.952  -0.096  1.00  0.00     0.073 C 
HETATM   12  N   UNL     1      -0.189   0.210  -1.194  1.00  0.00    -0.164 NA
HETATM   13  N   UNL     1      -1.102   1.170  -1.156  1.00  0.00     0.004 NA
ENDBRANCH   7   8
ENDBRANCH   1   7
BRANCH   4  14
HETATM   14  O   UNL     1      -8.179  -0.889   0.781  1.00  0.00    -0.255 OA
BRANCH  14  15
HETATM   15  C   UNL     1      -9.041  -0.884  -0.351  1.00  0.00     0.530 C 
HETATM   16  F   UNL     1     -10.220  -1.441   0.006  1.00  0.00    -0.144 F 
HETATM   17  F   UNL     1      -8.525  -1.612  -1.365  1.00  0.00    -0.144 F 
HETATM   18  F   UNL     1      -9.283   0.375  -0.776  1.00  0.00    -0.144 F 
ENDBRANCH  14  15
ENDBRANCH   4  14
TORSDOF 4
