REMARK  1 active torsions:
REMARK  status: ('A' for Active; 'I' for Inactive)
REMARK    1  A    between atoms: C_8  and  O_9 
ROOT
HETATM    1  N   UNL     1      -0.866  -2.500   0.000  1.00  0.00    -0.191 NA
HETATM    2  C   UNL     1      -0.866  -1.500   0.000  1.00  0.00     0.104 C 
HETATM    3  C   UNL     1      -0.866  -0.500   0.000  1.00  0.00     0.099 A 
HETATM    4  C   UNL     1      -1.993   0.242  -0.091  1.00  0.00     0.160 A 
HETATM    5  O   UNL     1      -2.101   1.609  -0.106  1.00  0.00    -0.358 OA
HETATM    6  C   UNL     1      -0.904   2.394  -0.010  1.00  0.00     0.204 A 
HETATM    7  C   UNL     1       0.363   1.613   0.086  1.00  0.00     0.037 A 
HETATM    8  C   UNL     1       0.379   0.278   0.090  1.00  0.00     0.086 A 
ENDROOT
BRANCH   8   9
HETATM    9  O   UNL     1       1.605  -0.368   0.178  1.00  0.00    -0.359 OA
HETATM   10  H   UNL     1       1.489  -1.336   0.153  1.00  0.00     0.217 HD
ENDBRANCH   8   9
TORSDOF 1
