REMARK  1 active torsions:
REMARK  status: ('A' for Active; 'I' for Inactive)
REMARK    1  A    between atoms: N_4  and  C_5 
ROOT
HETATM    1  C   UNL     1       1.575   0.653   0.218  1.00  0.00     0.053 C 
HETATM    2  C   UNL     1       1.639   1.862  -0.761  1.00  0.00     0.042 C 
HETATM    3  C   UNL     1       0.560   1.770  -1.854  1.00  0.00    -0.040 C 
HETATM    4  C   UNL     1       0.671   2.976  -2.792  1.00  0.00     0.015 C 
HETATM    5  C   UNL     1      -0.824   1.741  -1.172  1.00  0.00     0.018 C 
HETATM    6  C   UNL     1      -0.937   0.536  -0.208  1.00  0.00    -0.040 C 
HETATM    7  C   UNL     1      -2.325   0.518   0.443  1.00  0.00     0.015 C 
HETATM    8  C   UNL     1      -0.733  -0.759  -1.030  1.00  0.00     0.018 C 
HETATM    9  C   UNL     1       0.648  -0.760  -1.712  1.00  0.00    -0.040 C 
HETATM   10  C   UNL     1       0.862  -2.057  -2.501  1.00  0.00     0.015 C 
HETATM   11  C   UNL     1       0.765   0.462  -2.645  1.00  0.00     0.018 C 
HETATM   12  C   UNL     1       1.719  -0.648  -0.622  1.00  0.00     0.042 C 
HETATM   13  C   UNL     1       0.175   0.641   0.877  1.00  0.00     0.042 C 
ENDROOT
BRANCH   1  14
HETATM   14  N   UNL     1       2.670   0.749   1.198  1.00  0.00    -0.273 N 
HETATM   15  C   UNL     1       3.635  -0.211   1.421  1.00  0.00     0.137 C 
HETATM   16  C   UNL     1       4.794   0.533   1.465  1.00  0.00     0.065 C 
HETATM   17  C   UNL     1       6.185   0.092   1.241  1.00  0.00     0.073 C 
HETATM   18  N   UNL     1       4.473   1.850   1.637  1.00  0.00    -0.164 NA
HETATM   19  N   UNL     1       3.150   1.957   1.565  1.00  0.00     0.005 NA
ENDBRANCH   1  14
TORSDOF 1
