REMARK  5 active torsions:
REMARK  status: ('A' for Active; 'I' for Inactive)
REMARK    1  A    between atoms: C_2  and  C_3 
REMARK    2  A    between atoms: C_3  and  O_4 
REMARK    3  A    between atoms: C_3  and  C_5 
REMARK    4  A    between atoms: C_6  and  C_7 
REMARK    5  A    between atoms: C_7  and  S_9 
ROOT
HETATM    1  C   UNL     1       3.464  -1.000   0.000  1.00  0.00    -0.066 C 
HETATM    2  C   UNL     1       2.598  -0.500   0.000  1.00  0.00    -0.014 C 
ENDROOT
BRANCH   1   3
HETATM    3  C   UNL     1       4.330  -1.500   0.000  1.00  0.00     0.197 C 
BRANCH   3   4
HETATM    4  C   UNL     1       4.316  -3.012   0.361  1.00  0.00     0.040 C 
HETATM    5  C   UNL     1       3.114  -3.819  -0.131  1.00  0.00     0.009 C 
ENDBRANCH   3   4
BRANCH   3   6
HETATM    6  O   UNL     1       5.324  -0.944   0.886  1.00  0.00    -0.383 OA
HETATM    7  H   UNL     1       5.541  -0.053   0.561  1.00  0.00     0.211 HD
ENDBRANCH   3   6
ENDBRANCH   1   3
BRANCH   2   8
HETATM    8  C   UNL     1       1.342   0.216   0.037  1.00  0.00     0.262 C 
HETATM    9  O   UNL     1       1.324   1.441   0.077  1.00  0.00    -0.271 OA
BRANCH   8  10
HETATM   10  S   UNL     1      -0.098  -0.782  -0.002  1.00  0.00    -0.083 SA
HETATM   11  C   UNL     1      -1.352   0.511  -0.109  1.00  0.00     0.099 C 
ENDBRANCH   8  10
ENDBRANCH   2   8
TORSDOF 5
