REMARK  7 active torsions:
REMARK  status: ('A' for Active; 'I' for Inactive)
REMARK    1  A    between atoms: C_2  and  O_3 
REMARK    2  A    between atoms: O_3  and  C_4 
REMARK    3  A    between atoms: C_4  and  C_6 
REMARK    4  A    between atoms: C_6  and  C_7 
REMARK    5  A    between atoms: C_7  and  C_8 
REMARK    6  A    between atoms: C_8  and  N_9 
REMARK       I    between atoms: N_9  and  C_10 
REMARK    7  A    between atoms: C_10  and  S_12 
ROOT
HETATM    1  C   UNL     1       3.479  -0.760   0.534  1.00  0.00     0.029 C 
ENDROOT
BRANCH   1   2
HETATM    2  C   UNL     1       4.554  -0.372   1.539  1.00  0.00     0.113 C 
BRANCH   2   3
HETATM    3  C   UNL     1       4.871   1.105   1.603  1.00  0.00     0.258 C 
HETATM    4  O   UNL     1       4.131   1.859   2.223  1.00  0.00    -0.265 OA
BRANCH   3   5
HETATM    5  O   UNL     1       5.989   1.586   1.007  1.00  0.00    -0.322 OA
BRANCH   5   6
HETATM    6  C   UNL     1       6.928   1.000   0.000  1.00  0.00     0.174 C 
HETATM    7  C   UNL     1       6.928   0.000   0.000  1.00  0.00     0.034 C 
ENDBRANCH   5   6
ENDBRANCH   3   5
ENDBRANCH   2   3
ENDBRANCH   1   2
BRANCH   1   8
HETATM    8  C   UNL     1       3.627  -0.212  -0.886  1.00  0.00     0.124 C 
BRANCH   8   9
HETATM    9  N   UNL     1       2.418  -0.506  -1.631  1.00  0.00    -0.352 N 
HETATM   10  C   UNL     1       1.315   0.284  -1.450  1.00  0.00     0.279 C 
HETATM   11  O   UNL     1       1.310   1.442  -1.067  1.00  0.00    -0.260 OA
HETATM   12  H   UNL     1       2.208  -1.470  -1.860  1.00  0.00     0.163 HD
BRANCH  10  13
HETATM   13  S   UNL     1      -0.134  -0.661  -1.659  1.00  0.00    -0.074 SA
HETATM   14  C   UNL     1      -1.021  -0.030  -0.210  1.00  0.00     0.100 C 
ENDBRANCH  10  13
ENDBRANCH   8   9
ENDBRANCH   1   8
TORSDOF 7
