REMARK  7 active torsions:
REMARK  status: ('A' for Active; 'I' for Inactive)
REMARK    1  A    between atoms: O_2  and  C_3 
REMARK    2  A    between atoms: C_3  and  C_5 
REMARK    3  A    between atoms: C_5  and  O_6 
REMARK    4  A    between atoms: C_5  and  C_7 
REMARK    5  A    between atoms: C_7  and  O_9 
REMARK    6  A    between atoms: C_7  and  C_17 
REMARK    7  A    between atoms: O_9  and  C_10 
ROOT
HETATM    1  C   UNL     1      -0.866   1.500   0.000  1.00  0.00     0.127 C 
HETATM    2  C   UNL     1      -1.341   1.849   1.684  1.00  0.00     0.055 C 
ENDROOT
BRANCH   1   3
HETATM    3  C   UNL     1      -0.366   2.366   0.000  1.00  0.00     0.257 C 
BRANCH   3   4
HETATM    4  C   UNL     1      -1.093   3.324  -0.725  1.00  0.00     0.290 C 
HETATM    5  O   UNL     1      -2.184   3.489  -1.222  1.00  0.00    -0.262 OA
BRANCH   4   6
HETATM    6  O   UNL     1      -0.366   4.098   0.000  1.00  0.00    -0.324 OA
HETATM    7  C   UNL     1       0.634   4.098   0.000  1.00  0.00     0.213 C 
ENDBRANCH   4   6
ENDBRANCH   3   4
BRANCH   3   8
HETATM    8  O   UNL     1       0.454   2.091  -1.420  1.00  0.00    -0.382 OA
HETATM    9  H   UNL     1       1.113   2.778  -1.597  1.00  0.00     0.210 HD
ENDBRANCH   3   8
ENDBRANCH   1   3
BRANCH   1  10
HETATM   10  O   UNL     1      -1.366   0.634   0.000  1.00  0.00    -0.327 OA
BRANCH  10  11
HETATM   11  C   UNL     1      -2.744   0.642  -0.440  1.00  0.00     0.138 C 
HETATM   12  C   UNL     1      -3.882   1.472   0.167  1.00  0.00     0.186 C 
HETATM   13  C   UNL     1      -5.062   1.708  -0.719  1.00  0.00     0.112 C 
HETATM   14  O   UNL     1      -3.932   1.830   1.329  1.00  0.00    -0.290 OA
HETATM   15  C   UNL     1      -5.519   0.313  -1.038  1.00  0.00     0.182 C 
HETATM   16  O   UNL     1      -4.511  -0.379  -1.800  1.00  0.00    -0.360 OA
HETATM   17  C   UNL     1      -3.212  -0.199  -1.381  1.00  0.00     0.175 C 
ENDBRANCH  10  11
ENDBRANCH   1  10
BRANCH   1  18
HETATM   18  C   UNL     1       0.455   0.322   0.504  1.00  0.00    -0.014 C 
HETATM   19  C   UNL     1       0.460  -0.967  -0.114  1.00  0.00    -0.053 C 
HETATM   20  C   UNL     1       1.580  -1.303  -0.866  1.00  0.00     0.008 C 
HETATM   21  C   UNL     1      -0.676  -1.952  -0.009  1.00  0.00     0.049 C 
HETATM   22  C   UNL     1       2.671  -0.428  -0.888  1.00  0.00     0.007 C 
HETATM   23  C   UNL     1       2.752   0.621   0.039  1.00  0.00    -0.061 C 
HETATM   24  C   UNL     1       1.702   0.814   0.916  1.00  0.00     0.017 C 
HETATM   25  C   UNL     1       3.791   1.686  -0.077  1.00  0.00     0.048 C 
ENDBRANCH   1  18
TORSDOF 7
