REMARK  5 active torsions:
REMARK  status: ('A' for Active; 'I' for Inactive)
REMARK    1  A    between atoms: C_2  and  C_4 
REMARK    2  A    between atoms: C_4  and  C_5 
REMARK    3  A    between atoms: C_5  and  C_6 
REMARK    4  A    between atoms: C_6  and  O_7 
REMARK    5  A    between atoms: O_7  and  C_8 
ROOT
HETATM    1  C   UNL     1       2.606  -0.014   0.344  1.00  0.00     0.027 C 
ENDROOT
BRANCH   1   2
HETATM    2  C   UNL     1       3.945   0.657   0.700  1.00  0.00     0.006 C 
BRANCH   2   3
HETATM    3  C   UNL     1       5.196   0.000   0.000  1.00  0.00    -0.023 C 
HETATM    4  C   UNL     1       5.196  -1.000   0.000  1.00  0.00     0.009 C 
HETATM    5  C   UNL     1       6.439   0.841   0.419  1.00  0.00     0.009 C 
ENDBRANCH   2   3
ENDBRANCH   1   2
BRANCH   1   6
HETATM    6  C   UNL     1       1.442   0.969   0.369  1.00  0.00     0.178 C 
BRANCH   6   7
HETATM    7  O   UNL     1       0.226   0.224   0.155  1.00  0.00    -0.328 OA
BRANCH   7   8
HETATM    8  C   UNL     1      -0.906   0.969   0.065  1.00  0.00     0.398 C 
HETATM    9  O   UNL     1      -2.014   0.492  -0.105  1.00  0.00    -0.276 OA
ENDBRANCH   7   8
ENDBRANCH   6   7
ENDBRANCH   1   6
TORSDOF 5
