REMARK  4 active torsions:
REMARK  status: ('A' for Active; 'I' for Inactive)
REMARK    1  A    between atoms: N_1  and  C_2 
REMARK    2  A    between atoms: C_5  and  C_6 
REMARK    3  A    between atoms: C_6  and  O_8 
REMARK    4  A    between atoms: O_8  and  C_9 
ROOT
HETATM    1  C   UNL     1       0.862  -1.673   0.018  1.00  0.00     0.168 C 
HETATM    2  N   UNL     1      -0.194  -2.390  -0.119  1.00  0.00    -0.262 NA
HETATM    3  C   UNL     1      -1.402  -1.633  -0.468  1.00  0.00     0.168 C 
HETATM    4  C   UNL     1      -1.476  -0.306   0.269  1.00  0.00     0.123 C 
HETATM    5  C   UNL     1      -0.221   0.519   0.021  1.00  0.00     0.138 C 
HETATM    6  N   UNL     1       0.960  -0.327  -0.062  1.00  0.00    -0.365 N 
HETATM    7  H   UNL     1       1.793   0.063   0.363  1.00  0.00     0.162 HD
ENDROOT
BRANCH   4   8
HETATM    8  C   UNL     1      -2.715   0.427  -0.199  1.00  0.00     0.271 C 
HETATM    9  O   UNL     1      -2.751   1.177  -1.168  1.00  0.00    -0.264 OA
BRANCH   8  10
HETATM   10  O   UNL     1      -3.788   0.040   0.561  1.00  0.00    -0.273 OA
BRANCH  10  11
HETATM   11  C   UNL     1      -4.960   0.748   0.261  1.00  0.00     0.146 C 
HETATM   12  C   UNL     1      -5.012   2.228   0.426  1.00  0.00     0.186 C 
HETATM   13  C   UNL     1      -6.199   2.921  -0.184  1.00  0.00     0.112 C 
HETATM   14  O   UNL     1      -4.112   2.834   1.003  1.00  0.00    -0.290 OA
HETATM   15  C   UNL     1      -7.416   2.060   0.086  1.00  0.00     0.182 C 
HETATM   16  O   UNL     1      -7.279   0.733  -0.438  1.00  0.00    -0.360 OA
HETATM   17  C   UNL     1      -6.074   0.139  -0.162  1.00  0.00     0.175 C 
ENDBRANCH  10  11
ENDBRANCH   8  10
ENDBRANCH   4   8
BRANCH   1  18
HETATM   18  N   UNL     1       2.056  -2.249   0.265  1.00  0.00    -0.273 NA
HETATM   19  H   UNL     1       1.961  -3.259   0.204  1.00  0.00     0.127 HD
HETATM   20  H   UNL     1       2.773  -1.935  -0.379  1.00  0.00     0.127 HD
ENDBRANCH   1  18
TORSDOF 4
