REMARK  2 active torsions:
REMARK  status: ('A' for Active; 'I' for Inactive)
REMARK    1  A    between atoms: C_6  and  O_7 
REMARK    2  A    between atoms: O_7  and  C_8 
ROOT
HETATM    1  C   UNL     1       3.404   1.028   0.000  1.00  0.00     0.019 C 
HETATM    2  C   UNL     1       2.379   0.400  -0.000  1.00  0.00    -0.058 C 
HETATM    3  C   UNL     1       1.160  -0.337  -0.000  1.00  0.00     0.108 A 
HETATM    4  C   UNL     1       1.157  -1.724  -0.000  1.00  0.00     0.044 A 
HETATM    5  C   UNL     1      -0.073  -2.377  -0.000  1.00  0.00     0.042 A 
HETATM    6  C   UNL     1      -1.246  -1.623  -0.000  1.00  0.00     0.096 A 
HETATM    7  C   UNL     1      -1.142  -0.239   0.000  1.00  0.00     0.155 A 
HETATM    8  N   UNL     1       0.042   0.419  -0.000  1.00  0.00    -0.249 NA
ENDROOT
BRANCH   6   9
HETATM    9  O   UNL     1      -2.444  -2.364   0.000  1.00  0.00    -0.284 OA
BRANCH   9  10
HETATM   10  C   UNL     1      -3.711  -1.793   0.000  1.00  0.00     0.403 C 
HETATM   11  O   UNL     1      -4.007  -0.611   0.000  1.00  0.00    -0.276 OA
ENDBRANCH   9  10
ENDBRANCH   6   9
TORSDOF 2
