REMARK  5 active torsions:
REMARK  status: ('A' for Active; 'I' for Inactive)
REMARK    1  A    between atoms: C_2  and  C_3 
REMARK    2  A    between atoms: C_2  and  N_14 
REMARK    3  A    between atoms: C_3  and  C_4 
REMARK    4  A    between atoms: C_4  and  O_6 
REMARK    5  A    between atoms: O_6  and  C_7 
REMARK       I    between atoms: N_14  and  C_15 
REMARK       I    between atoms: C_15  and  N_17 
ROOT
HETATM    1  C   UNL     1      -0.409   2.681   0.400  1.00  0.00     0.136 C 
ENDROOT
BRANCH   1   2
HETATM    2  C   UNL     1       0.866   3.500   0.000  1.00  0.00     0.089 C 
HETATM    3  C   UNL     1       0.866   4.500   0.000  1.00  0.00     0.032 C 
BRANCH   2   4
HETATM    4  N   UNL     1       2.017   2.931   0.773  1.00  0.00    -0.361 N 
HETATM    5  C   UNL     1       3.336   3.096   0.512  1.00  0.00     0.165 C 
HETATM    6  N   UNL     1       4.233   2.232   0.833  1.00  0.00    -0.274 NA
HETATM    7  N   UNL     1       3.741   4.240  -0.068  1.00  0.00    -0.273 NA
HETATM    8  H   UNL     1       3.780   1.431   1.277  1.00  0.00     0.189 HD
HETATM    9  H   UNL     1       4.727   4.170  -0.289  1.00  0.00     0.127 HD
HETATM   10  H   UNL     1       3.205   4.510  -0.879  1.00  0.00     0.127 HD
HETATM   11  H   UNL     1       1.800   2.027   1.192  1.00  0.00     0.162 HD
ENDBRANCH   2   4
ENDBRANCH   1   2
BRANCH   1  12
HETATM   12  C   UNL     1      -0.268   1.286  -0.176  1.00  0.00     0.266 C 
HETATM   13  O   UNL     1      -0.500   1.037  -1.355  1.00  0.00    -0.265 OA
BRANCH  12  14
HETATM   14  O   UNL     1       0.361   0.516   0.765  1.00  0.00    -0.275 OA
BRANCH  14  15
HETATM   15  C   UNL     1       0.586  -0.813   0.380  1.00  0.00     0.129 C 
HETATM   16  C   UNL     1      -0.433  -1.816   0.684  1.00  0.00     0.227 C 
HETATM   17  C   UNL     1      -0.163  -3.073   0.292  1.00  0.00     0.192 C 
HETATM   18  O   UNL     1      -1.448  -1.350   1.272  1.00  0.00    -0.283 OA
HETATM   19  O   UNL     1       0.976  -3.530  -0.321  1.00  0.00    -0.355 OA
HETATM   20  C   UNL     1       2.066  -2.609  -0.428  1.00  0.00     0.205 C 
HETATM   21  C   UNL     1       1.772  -1.181  -0.121  1.00  0.00     0.041 C 
ENDBRANCH  14  15
ENDBRANCH  12  14
ENDBRANCH   1  12
TORSDOF 5
