REMARK  7 active torsions:
REMARK  status: ('A' for Active; 'I' for Inactive)
REMARK    1  A    between atoms: S_2  and  C_3 
REMARK    2  A    between atoms: C_3  and  C_4 
REMARK    3  A    between atoms: C_3  and  C_6 
REMARK    4  A    between atoms: C_4  and  O_5 
REMARK    5  A    between atoms: C_6  and  N_7 
REMARK    6  A    between atoms: C_9  and  C_10 
REMARK    7  A    between atoms: C_10  and  C_11 
ROOT
HETATM    1  N   UNL     1       0.894  -0.873   0.569  1.00  0.00    -0.282 N 
HETATM    2  C   UNL     1       0.280  -2.024   0.183  1.00  0.00     0.136 A 
HETATM    3  C   UNL     1      -0.650  -2.246   1.176  1.00  0.00     0.069 A 
HETATM    4  N   UNL     1      -0.502  -1.296   2.150  1.00  0.00    -0.163 NA
HETATM    5  N   UNL     1       0.472  -0.476   1.781  1.00  0.00     0.004 NA
ENDROOT
BRANCH   1   6
HETATM    6  C   UNL     1       1.884  -0.127  -0.185  1.00  0.00     0.163 C 
BRANCH   6   7
HETATM    7  C   UNL     1       2.072   1.332   0.261  1.00  0.00     0.090 C 
BRANCH   7   8
HETATM    8  S   UNL     1       3.674   2.008  -0.365  1.00  0.00    -0.165 SA
HETATM    9  C   UNL     1       4.828   1.062   0.663  1.00  0.00     0.090 C 
ENDBRANCH   7   8
BRANCH   7  10
HETATM   10  C   UNL     1       0.939   2.247  -0.241  1.00  0.00     0.180 C 
BRANCH  10  11
HETATM   11  O   UNL     1      -0.359   1.725   0.019  1.00  0.00    -0.400 OA
HETATM   12  H   UNL     1      -0.402   1.438   0.954  1.00  0.00     0.209 HD
ENDBRANCH  10  11
ENDBRANCH   7  10
ENDBRANCH   6   7
ENDBRANCH   1   6
BRANCH   3  13
HETATM   13  C   UNL     1      -1.723  -3.270   1.239  1.00  0.00     0.066 C 
BRANCH  13  14
HETATM   14  C   UNL     1      -2.750  -3.108   0.101  1.00  0.00    -0.017 C 
HETATM   15  C   UNL     1      -3.544  -1.805   0.236  1.00  0.00     0.010 C 
HETATM   16  C   UNL     1      -3.701  -4.302   0.066  1.00  0.00     0.010 C 
ENDBRANCH  13  14
ENDBRANCH   3  13
TORSDOF 7
