REMARK  14 active torsions:
REMARK  status: ('A' for Active; 'I' for Inactive)
REMARK    1  A    between atoms: C_2  and  C_4 
REMARK    2  A    between atoms: C_6  and  C_7 
REMARK    3  A    between atoms: N_10  and  C_11 
REMARK    4  A    between atoms: C_11  and  C_12 
REMARK    5  A    between atoms: C_12  and  C_13 
REMARK    6  A    between atoms: C_13  and  C_14 
REMARK    7  A    between atoms: C_13  and  C_23 
REMARK    8  A    between atoms: C_14  and  C_16 
REMARK    9  A    between atoms: C_21  and  O_22 
REMARK   10  A    between atoms: C_23  and  C_25 
REMARK   11  A    between atoms: C_25  and  O_26 
REMARK   12  A    between atoms: C_25  and  C_27 
REMARK   13  A    between atoms: C_27  and  C_29 
REMARK   14  A    between atoms: C_29  and  C_30 
ROOT
HETATM    1  C   UNL     1       8.603   1.049   0.301  1.00  0.00     0.135 C 
ENDROOT
BRANCH   1   2
HETATM    2  C   UNL     1       7.196   0.521  -0.040  1.00  0.00     0.043 C 
BRANCH   2   3
HETATM    3  C   UNL     1       7.049   0.205  -1.538  1.00  0.00     0.171 C 
BRANCH   3   4
HETATM    4  N   UNL     1       5.666   0.369  -1.951  1.00  0.00    -0.191 N 
HETATM    5  N   UNL     1       5.205   1.578  -2.318  1.00  0.00     0.024 NA
HETATM    6  N   UNL     1       3.909   1.542  -2.038  1.00  0.00    -0.136 NA
HETATM    7  C   UNL     1       3.651   0.298  -1.515  1.00  0.00     0.198 A 
HETATM    8  N   UNL     1       4.738  -0.491  -1.502  1.00  0.00    -0.136 NA
BRANCH   7   9
HETATM    9  C   UNL     1       2.393  -0.063  -0.882  1.00  0.00     0.016 A 
HETATM   10  C   UNL     1       1.354   0.875  -0.773  1.00  0.00     0.030 A 
HETATM   11  C   UNL     1       0.181   0.583  -0.052  1.00  0.00     0.009 A 
HETATM   12  C   UNL     1       0.074  -0.687   0.537  1.00  0.00     0.127 A 
HETATM   13  C   UNL     1       1.082  -1.638   0.412  1.00  0.00     0.044 A 
HETATM   14  F   UNL     1      -1.001  -1.012   1.271  1.00  0.00    -0.205 F 
HETATM   15  C   UNL     1       2.240  -1.327  -0.296  1.00  0.00     0.018 A 
BRANCH  11  16
HETATM   16  C   UNL     1      -0.895   1.594   0.065  1.00  0.00    -0.058 C 
HETATM   17  C   UNL     1      -0.610   2.888   0.300  1.00  0.00     0.019 C 
HETATM   18  C   UNL     1      -2.327   1.147  -0.045  1.00  0.00     0.048 C 
ENDBRANCH  11  16
ENDBRANCH   7   9
ENDBRANCH   3   4
ENDBRANCH   2   3
ENDBRANCH   1   2
BRANCH   1  19
HETATM   19  C   UNL     1       9.401  -0.028   1.014  1.00  0.00     0.173 C 
HETATM   20  O   UNL     1       8.912  -0.816   1.827  1.00  0.00    -0.291 OA
BRANCH  19  21
HETATM   21  C   UNL     1      10.795  -0.254   0.574  1.00  0.00     0.044 A 
HETATM   22  C   UNL     1      11.252  -1.568   0.410  1.00  0.00     0.079 A 
HETATM   23  C   UNL     1      12.504  -1.811  -0.144  1.00  0.00     0.037 A 
HETATM   24  C   UNL     1      13.319  -0.738  -0.510  1.00  0.00     0.003 A 
HETATM   25  C   UNL     1      12.887   0.574  -0.309  1.00  0.00     0.001 A 
HETATM   26  C   UNL     1      11.625   0.820   0.234  1.00  0.00     0.018 A 
BRANCH  22  27
HETATM   27  O   UNL     1      10.500  -2.662   0.746  1.00  0.00    -0.360 OA
HETATM   28  H   UNL     1       9.775  -2.356   1.337  1.00  0.00     0.217 HD
ENDBRANCH  22  27
ENDBRANCH  19  21
ENDBRANCH   1  19
BRANCH   1  29
HETATM   29  C   UNL     1       8.528   2.369   1.062  1.00  0.00     0.174 C 
HETATM   30  O   UNL     1       9.033   2.508   2.178  1.00  0.00    -0.294 OA
BRANCH  29  31
HETATM   31  C   UNL     1       7.762   3.510   0.384  1.00  0.00     0.258 C 
BRANCH  31  32
HETATM   32  O   UNL     1       7.557   3.226  -0.997  1.00  0.00    -0.380 OA
HETATM   33  H   UNL     1       6.711   3.668  -1.249  1.00  0.00     0.211 HD
ENDBRANCH  31  32
BRANCH  31  34
HETATM   34  C   UNL     1       8.434   4.872   0.463  1.00  0.00     0.169 C 
HETATM   35  O   UNL     1       9.663   4.991   0.472  1.00  0.00    -0.294 OA
BRANCH  34  36
HETATM   36  C   UNL     1       7.563   6.108   0.550  1.00  0.00     0.159 C 
BRANCH  36  37
HETATM   37  C   UNL     1       6.234   6.076  -0.168  1.00  0.00     0.130 C 
HETATM   38  C   UNL     1       5.370   7.306  -0.077  1.00  0.00     0.091 C 
HETATM   39  O   UNL     1       5.824   5.085  -0.774  1.00  0.00    -0.298 OA
ENDBRANCH  36  37
ENDBRANCH  34  36
ENDBRANCH  31  34
ENDBRANCH  29  31
ENDBRANCH   1  29
TORSDOF 14
