REMARK  4 active torsions:
REMARK  status: ('A' for Active; 'I' for Inactive)
REMARK    1  A    between atoms: N_4  and  C_5 
REMARK    2  A    between atoms: C_5  and  C_6 
REMARK    3  A    between atoms: C_6  and  O_7 
REMARK    4  A    between atoms: C_6  and  C_8 
ROOT
HETATM    1  C   UNL     1      -1.373   4.316   0.465  1.00  0.00     0.170 C 
ENDROOT
BRANCH   1   2
HETATM    2  C   UNL     1      -0.527   3.572  -0.579  1.00  0.00     0.182 C 
BRANCH   2   3
HETATM    3  N   UNL     1      -0.400   2.167  -0.270  1.00  0.00    -0.280 N 
HETATM    4  C   UNL     1      -1.141   1.137  -0.767  1.00  0.00     0.136 A 
HETATM    5  C   UNL     1      -0.865   0.097   0.094  1.00  0.00     0.065 A 
HETATM    6  C   UNL     1      -1.481  -1.240   0.181  1.00  0.00     0.073 C 
HETATM    7  N   UNL     1       0.087   0.500   0.993  1.00  0.00    -0.164 NA
HETATM    8  N   UNL     1       0.376   1.769   0.752  1.00  0.00     0.004 NA
ENDBRANCH   2   3
ENDBRANCH   1   2
BRANCH   1   9
HETATM    9  O   UNL     1      -1.322   5.722   0.195  1.00  0.00    -0.389 OA
HETATM   10  H   UNL     1      -0.515   6.065   0.617  1.00  0.00     0.210 HD
ENDBRANCH   1   9
BRANCH   1  11
HETATM   11  C   UNL     1      -2.823   3.867   0.466  1.00  0.00    -0.025 A 
HETATM   12  C   UNL     1      -3.771   4.432  -0.398  1.00  0.00     0.052 A 
HETATM   13  C   UNL     1      -5.075   3.948  -0.417  1.00  0.00     0.117 A 
HETATM   14  C   UNL     1      -5.465   2.895   0.402  1.00  0.00     0.042 A 
HETATM   15  F   UNL     1      -5.970   4.498  -1.250  1.00  0.00    -0.206 F 
HETATM   16  C   UNL     1      -4.537   2.323   1.267  1.00  0.00     0.004 A 
HETATM   17  C   UNL     1      -3.228   2.811   1.305  1.00  0.00     0.010 A 
ENDBRANCH   1  11
TORSDOF 4
