REMARK  3 active torsions:
REMARK  status: ('A' for Active; 'I' for Inactive)
REMARK    1  A    between atoms: C_3  and  C_4 
REMARK       I    between atoms: C_4  and  N_6 
REMARK    2  A    between atoms: N_6  and  C_7 
REMARK    3  A    between atoms: N_6  and  C_9 
ROOT
HETATM    1  C   UNL     1       3.094   0.405  -0.047  1.00  0.00     0.112 C 
HETATM    2  C   UNL     1       1.842   1.157   0.005  1.00  0.00    -0.101 C 
HETATM    3  C   UNL     1       0.787   1.730   0.038  1.00  0.00    -0.005 C 
ENDROOT
BRANCH   3   4
HETATM    4  C   UNL     1      -0.497   2.403   0.065  1.00  0.00     0.309 C 
HETATM    5  O   UNL     1      -0.467   3.633   0.117  1.00  0.00    -0.257 OA
HETATM    6  N   UNL     1      -1.680   1.660   0.037  1.00  0.00    -0.243 N 
BRANCH   6   7
HETATM    7  C   UNL     1      -2.900   2.298   0.019  1.00  0.00     0.211 C 
HETATM    8  N   UNL     1      -3.117   3.569   0.027  1.00  0.00    -0.295 NA
HETATM    9  H   UNL     1      -2.221   4.089   0.055  1.00  0.00     0.187 HD
ENDBRANCH   6   7
BRANCH   6  10
HETATM   10  C   UNL     1      -1.702   0.276   0.026  1.00  0.00     0.364 C 
HETATM   11  O   UNL     1      -0.767  -0.514   0.005  1.00  0.00    -0.283 OA
ENDBRANCH   6  10
ENDBRANCH   3   4
TORSDOF 3
