REMARK  6 active torsions:
REMARK  status: ('A' for Active; 'I' for Inactive)
REMARK    1  A    between atoms: S_2  and  C_3 
REMARK    2  A    between atoms: C_3  and  C_4 
REMARK    3  A    between atoms: C_3  and  C_10 
REMARK    4  A    between atoms: C_10  and  O_11 
REMARK    5  A    between atoms: C_10  and  C_12 
REMARK    6  A    between atoms: C_10  and  C_15 
REMARK       I    between atoms: C_12  and  N_13 
REMARK       I    between atoms: C_15  and  N_16 
ROOT
HETATM    1  C   UNL     1       1.732  -2.000   0.000  1.00  0.00     0.230 C 
ENDROOT
BRANCH   1   2
HETATM    2  C   UNL     1       0.565  -1.240  -1.170  1.00  0.00     0.133 C 
BRANCH   2   3
HETATM    3  S   UNL     1      -1.282  -1.801  -1.253  1.00  0.00    -0.160 SA
HETATM    4  C   UNL     1      -1.758  -1.674   0.495  1.00  0.00     0.090 C 
ENDBRANCH   2   3
BRANCH   2   5
HETATM    5  C   UNL     1       0.564   0.379  -1.159  1.00  0.00    -0.040 C 
HETATM    6  C   UNL     1      -0.472   1.158  -0.608  1.00  0.00     0.008 C 
HETATM    7  C   UNL     1      -0.369   2.548  -0.462  1.00  0.00     0.001 C 
HETATM    8  C   UNL     1       0.792   3.205  -0.845  1.00  0.00     0.000 C 
HETATM    9  C   UNL     1       1.812   2.483  -1.443  1.00  0.00     0.001 C 
HETATM   10  C   UNL     1       1.680   1.099  -1.648  1.00  0.00     0.008 C 
ENDBRANCH   2   5
ENDBRANCH   1   2
BRANCH   1  11
HETATM   11  O   UNL     1       2.232  -1.134   0.000  1.00  0.00    -0.371 OA
HETATM   12  H   UNL     1       2.656  -0.805  -0.813  1.00  0.00     0.211 HD
ENDBRANCH   1  11
BRANCH   1  13
HETATM   13  C   UNL     1       3.215  -2.700  -0.546  1.00  0.00     0.240 C 
HETATM   14  N   UNL     1       4.144  -1.871  -1.173  1.00  0.00    -0.270 NA
HETATM   15  H   UNL     1       4.974  -2.415  -1.400  1.00  0.00     0.127 HD
HETATM   16  H   UNL     1       4.429  -1.073  -0.608  1.00  0.00     0.127 HD
HETATM   17  O   UNL     1       3.616  -3.840  -0.287  1.00  0.00    -0.276 OA
ENDBRANCH   1  13
BRANCH   1  18
HETATM   18  C   UNL     1       1.232  -2.866   0.000  1.00  0.00     0.260 C 
HETATM   19  N   UNL     1       0.814  -3.316   1.251  1.00  0.00    -0.367 N 
HETATM   20  H   UNL     1       0.462  -4.268   1.250  1.00  0.00     0.159 HD
HETATM   21  H   UNL     1       1.277  -3.009   2.100  1.00  0.00     0.159 HD
HETATM   22  O   UNL     1       0.974  -3.664  -0.909  1.00  0.00    -0.270 OA
ENDBRANCH   1  18
TORSDOF 6
