REMARK  2 active torsions:
REMARK  status: ('A' for Active; 'I' for Inactive)
REMARK    1  A    between atoms: C_2  and  O_4 
REMARK    2  A    between atoms: O_4  and  C_5 
ROOT
HETATM    1  C   UNL     1       0.021  -0.324   0.130  1.00  0.00     0.150 A 
HETATM    2  C   UNL     1      -0.347  -1.605   0.322  1.00  0.00     0.176 A 
HETATM    3  O   UNL     1      -1.629  -2.098   0.322  1.00  0.00    -0.356 OA
HETATM    4  C   UNL     1      -2.678  -1.160   0.034  1.00  0.00     0.206 A 
HETATM    5  C   UNL     1      -2.277   0.265  -0.119  1.00  0.00     0.057 A 
HETATM    6  C   UNL     1      -1.009   0.707  -0.076  1.00  0.00     0.205 A 
HETATM    7  O   UNL     1      -0.572   1.877  -0.194  1.00  0.00    -0.286 OA
ENDROOT
BRANCH   1   8
HETATM    8  O   UNL     1       1.393   0.137   0.108  1.00  0.00    -0.273 OA
BRANCH   8   9
HETATM    9  C   UNL     1       2.598  -0.500   0.000  1.00  0.00     0.260 C 
HETATM   10  C   UNL     1       2.598  -1.500   0.000  1.00  0.00     0.126 C 
HETATM   11  O   UNL     1       3.602   0.215  -0.123  1.00  0.00    -0.265 OA
ENDBRANCH   8   9
ENDBRANCH   1   8
TORSDOF 2
