REMARK  3 active torsions:
REMARK  status: ('A' for Active; 'I' for Inactive)
REMARK    1  A    between atoms: N_4  and  C_5 
REMARK    2  A    between atoms: C_10  and  N_11 
REMARK    3  A    between atoms: C_13  and  N_14 
ROOT
HETATM    1  C   UNL     1      -2.442  -2.078   0.000  1.00  0.00     0.060 A 
HETATM    2  C   UNL     1      -2.522  -3.471  -0.000  1.00  0.00     0.034 A 
HETATM    3  C   UNL     1      -3.778  -4.071  -0.000  1.00  0.00     0.035 A 
HETATM    4  C   UNL     1      -4.935  -3.302  -0.000  1.00  0.00     0.090 A 
HETATM    5  N   UNL     1      -6.107  -3.914  -0.000  1.00  0.00    -0.062 NA
HETATM    6  C   UNL     1      -7.179  -3.126   0.000  1.00  0.00     0.722 A 
HETATM    7  N   UNL     1      -7.206  -1.791   0.000  1.00  0.00    -0.045 NA
HETATM    8  C   UNL     1      -6.008  -1.179  -0.000  1.00  0.00     0.153 A 
HETATM    9  C   UNL     1      -4.836  -1.905  -0.000  1.00  0.00     0.042 A 
HETATM   10  C   UNL     1      -3.591  -1.301   0.000  1.00  0.00     0.049 A 
ENDROOT
BRANCH   1  11
HETATM   11  N   UNL     1      -1.222  -1.395  -0.000  1.00  0.00    -0.225 N 
HETATM   12  C   UNL     1       0.029  -1.922  -0.000  1.00  0.00     0.149 A 
HETATM   13  C   UNL     1       0.859  -0.826  -0.000  1.00  0.00     0.072 A 
HETATM   14  C   UNL     1       2.291  -0.762   0.000  1.00  0.00     0.074 C 
HETATM   15  N   UNL     1       0.107   0.313  -0.000  1.00  0.00    -0.135 NA
HETATM   16  N   UNL     1      -1.163  -0.042  -0.000  1.00  0.00    -0.061 NA
ENDBRANCH   1  11
BRANCH   8  17
HETATM   17  N   UNL     1      -6.042   0.203  -0.000  1.00  0.00    -0.383 N 
HETATM   18  H   UNL     1      -5.216   0.781   0.000  1.00  0.00     0.157 HD
HETATM   19  H   UNL     1      -6.946   0.649   0.000  1.00  0.00     0.157 HD
ENDBRANCH   8  17
BRANCH   6  20
HETATM   20  N   UNL     1      -8.429  -3.799   0.001  1.00  0.00    -0.231 N 
HETATM   21  H   UNL     1      -8.872  -2.892  -0.000  1.00  0.00     0.174 HD
HETATM   22  H   UNL     1      -7.911  -4.668  -0.000  1.00  0.00     0.174 HD
ENDBRANCH   6  20
TORSDOF 3
