REMARK  2 active torsions:
REMARK  status: ('A' for Active; 'I' for Inactive)
REMARK    1  A    between atoms: C_7  and  N_8 
REMARK    2  A    between atoms: N_8  and  C_9 
ROOT
HETATM    1  C   UNL     1       0.455  -2.036   0.163  1.00  0.00     0.179 C 
HETATM    2  N   UNL     1      -0.285  -0.844  -0.206  1.00  0.00    -0.278 N 
HETATM    3  N   UNL     1      -1.669  -0.902  -0.026  1.00  0.00    -0.263 N 
HETATM    4  C   UNL     1      -2.155   0.388   0.009  1.00  0.00     0.263 C 
HETATM    5  O   UNL     1      -3.312   0.753  -0.038  1.00  0.00    -0.267 OA
HETATM    6  C   UNL     1      -0.983   1.278   0.079  1.00  0.00     0.126 C 
HETATM    7  C   UNL     1       0.098   0.485  -0.050  1.00  0.00     0.129 C 
HETATM    8  H   UNL     1      -2.227  -1.659  -0.402  1.00  0.00     0.190 HD
ENDROOT
BRANCH   7   9
HETATM    9  N   UNL     1       1.340   1.054  -0.011  1.00  0.00    -0.319 N 
HETATM   10  H   UNL     1       1.405   2.053   0.153  1.00  0.00     0.169 HD
BRANCH   9  11
HETATM   11  C   UNL     1       2.555   0.470  -0.199  1.00  0.00     0.354 C 
HETATM   12  O   UNL     1       3.607   1.093  -0.118  1.00  0.00    -0.283 OA
ENDBRANCH   9  11
ENDBRANCH   7   9
TORSDOF 2
