REMARK  4 active torsions:
REMARK  status: ('A' for Active; 'I' for Inactive)
REMARK    1  A    between atoms: S_2  and  C_3 
REMARK    2  A    between atoms: C_3  and  N_5 
REMARK    3  A    between atoms: N_5  and  C_6 
REMARK    4  A    between atoms: C_6  and  C_7 
ROOT
HETATM    1  C   UNL     1      -0.002   0.667   0.036  1.00  0.00    -0.000 A 
HETATM    2  C   UNL     1      -1.273   1.189   0.309  1.00  0.00     0.035 A 
HETATM    3  C   UNL     1      -1.480   2.575   0.312  1.00  0.00     0.034 A 
HETATM    4 CL   UNL     1      -3.046   3.201   0.641  1.00  0.00    -0.084 Cl
HETATM    5  C   UNL     1      -0.425   3.455   0.062  1.00  0.00     0.027 A 
HETATM    6  C   UNL     1       0.846   2.945  -0.195  1.00  0.00     0.044 A 
HETATM    7  C   UNL     1       1.047   1.567  -0.203  1.00  0.00     0.124 A 
HETATM    8  F   UNL     1       2.281   1.102  -0.429  1.00  0.00    -0.205 F 
ENDROOT
BRANCH   1   9
HETATM    9  C   UNL     1       0.325  -0.801   0.106  1.00  0.00     0.162 C 
BRANCH   9  10
HETATM   10  N   UNL     1      -0.806  -1.681  -0.143  1.00  0.00    -0.371 N 
HETATM   11  H   UNL     1      -1.282  -1.557  -1.027  1.00  0.00     0.161 HD
BRANCH  10  12
HETATM   12  C   UNL     1      -0.981  -2.920   0.425  1.00  0.00     0.134 C 
HETATM   13  S   UNL     1      -0.205  -3.539   1.762  1.00  0.00    -0.053 SA
BRANCH  12  14
HETATM   14  S   UNL     1      -2.135  -3.862  -0.497  1.00  0.00    -0.105 SA
HETATM   15  C   UNL     1      -3.644  -2.920  -0.199  1.00  0.00     0.098 C 
ENDBRANCH  12  14
ENDBRANCH  10  12
ENDBRANCH   9  10
ENDBRANCH   1   9
TORSDOF 4
