REMARK  3 active torsions:
REMARK  status: ('A' for Active; 'I' for Inactive)
REMARK    1  A    between atoms: S_2  and  C_3 
REMARK       I    between atoms: C_3  and  N_5 
REMARK    2  A    between atoms: N_5  and  C_6 
REMARK    3  A    between atoms: C_9  and  C_10 
ROOT
HETATM    1  C   UNL     1       0.300  -0.656  -0.880  1.00  0.00     0.038 A 
HETATM    2  C   UNL     1       0.555  -2.022  -0.738  1.00  0.00     0.030 A 
HETATM    3  C   UNL     1      -0.416  -2.867  -0.190  1.00  0.00     0.015 A 
HETATM    4  C   UNL     1      -1.674  -2.376   0.214  1.00  0.00     0.011 A 
HETATM    5  C   UNL     1      -1.905  -1.007   0.044  1.00  0.00     0.127 A 
HETATM    6  F   UNL     1      -3.038  -0.435   0.463  1.00  0.00    -0.205 F 
HETATM    7  C   UNL     1      -0.946  -0.163  -0.512  1.00  0.00     0.072 A 
ENDROOT
BRANCH   4   8
HETATM    8  C   UNL     1      -2.652  -3.314   0.908  1.00  0.00     0.185 C 
HETATM    9  C   UNL     1      -2.952  -4.650   0.156  1.00  0.00     0.306 C 
HETATM   10  N   UNL     1      -4.002  -4.554  -0.872  1.00  0.00     0.088 N 
HETATM   11  C   UNL     1      -5.202  -3.959  -0.259  1.00  0.00     0.295 C 
HETATM   12  H   UNL     1      -4.229  -5.487  -1.214  1.00  0.00     0.316 HD
HETATM   13  C   UNL     1      -4.870  -2.598   0.354  1.00  0.00     0.198 C 
HETATM   14  O   UNL     1      -3.869  -2.706   1.376  1.00  0.00    -0.378 OA
ENDBRANCH   4   8
BRANCH   1  15
HETATM   15  N   UNL     1       1.378   0.164  -1.260  1.00  0.00    -0.318 N 
HETATM   16  C   UNL     1       1.364   1.545  -1.261  1.00  0.00     0.283 C 
HETATM   17  O   UNL     1       0.408   2.267  -1.479  1.00  0.00    -0.260 OA
HETATM   18  H   UNL     1       2.277  -0.275  -1.373  1.00  0.00     0.169 HD
BRANCH  16  19
HETATM   19  S   UNL     1       2.936   2.233  -0.897  1.00  0.00    -0.073 SA
HETATM   20  C   UNL     1       3.679   1.006   0.205  1.00  0.00     0.100 C 
ENDBRANCH  16  19
ENDBRANCH   1  15
TORSDOF 3
