REMARK  5 active torsions:
REMARK  status: ('A' for Active; 'I' for Inactive)
REMARK    1  A    between atoms: C_2  and  N_3 
REMARK    2  A    between atoms: N_3  and  C_5 
REMARK    3  A    between atoms: C_5  and  C_7 
REMARK    4  A    between atoms: C_7  and  O_9 
REMARK    5  A    between atoms: O_9  and  C_10 
ROOT
HETATM    1  C   UNL     1       1.148   0.911   0.032  1.00  0.00     0.297 C 
HETATM    2  O   UNL     1       0.475   0.975   1.073  1.00  0.00    -0.262 OA
ENDROOT
BRANCH   1   3
HETATM    3  C   UNL     1       2.598   1.500   0.000  1.00  0.00     0.317 C 
HETATM    4  C   UNL     1       2.598   2.500   0.000  1.00  0.00     0.054 C 
BRANCH   3   5
HETATM    5  N   UNL     1       3.613   0.631  -0.792  1.00  0.00     0.097 NA
HETATM    6  C   UNL     1       4.945   1.297  -0.855  1.00  0.00     0.310 C 
BRANCH   5   7
HETATM    7  C   UNL     1       3.893  -0.689  -0.149  1.00  0.00     0.268 C 
HETATM    8  C   UNL     1       2.796  -1.731  -0.225  1.00  0.00     0.037 C 
ENDBRANCH   5   7
ENDBRANCH   3   5
ENDBRANCH   1   3
BRANCH   1   9
HETATM    9  O   UNL     1       0.726   0.304  -1.120  1.00  0.00    -0.271 OA
BRANCH   9  10
HETATM   10  C   UNL     1      -0.515  -0.336  -0.888  1.00  0.00     0.146 C 
HETATM   11  C   UNL     1      -1.754   0.470  -0.690  1.00  0.00     0.186 C 
HETATM   12  C   UNL     1      -2.892  -0.219   0.016  1.00  0.00     0.112 C 
HETATM   13  O   UNL     1      -1.805   1.647  -1.034  1.00  0.00    -0.290 OA
HETATM   14  C   UNL     1      -2.976  -1.650  -0.476  1.00  0.00     0.182 C 
HETATM   15  O   UNL     1      -1.745  -2.365  -0.350  1.00  0.00    -0.360 OA
HETATM   16  C   UNL     1      -0.624  -1.659  -0.699  1.00  0.00     0.175 C 
ENDBRANCH   9  10
ENDBRANCH   1   9
TORSDOF 5
