REMARK  3 active torsions:
REMARK  status: ('A' for Active; 'I' for Inactive)
REMARK    1  A    between atoms: C_2  and  C_3 
REMARK    2  A    between atoms: C_7  and  S_8 
REMARK    3  A    between atoms: S_8  and  C_9 
ROOT
HETATM    1  C   UNL     1       1.255  -0.467  -0.000  1.00  0.00    -0.036 A 
HETATM    2  C   UNL     1       1.208  -1.864  -0.000  1.00  0.00     0.011 A 
HETATM    3  C   UNL     1      -0.016  -2.529  -0.000  1.00  0.00     0.002 A 
HETATM    4  C   UNL     1      -1.214  -1.809   0.000  1.00  0.00     0.019 A 
HETATM    5  C   UNL     1      -1.208  -0.415  -0.000  1.00  0.00     0.008 A 
HETATM    6  C   UNL     1       0.039   0.238   0.000  1.00  0.00     0.030 A 
ENDROOT
BRANCH   5   7
HETATM    7  S   UNL     1      -2.630   0.660  -0.000  1.00  0.00    -0.062 SA
BRANCH   7   8
HETATM    8  C   UNL     1      -4.090  -0.298  -0.000  1.00  0.00     0.309 C 
HETATM    9  O   UNL     1      -4.155  -1.520   0.000  1.00  0.00    -0.295 OA
ENDBRANCH   7   8
ENDBRANCH   5   7
BRANCH   1  10
HETATM   10  C   UNL     1       2.507   0.307   0.000  1.00  0.00     0.001 C 
HETATM   11  C   UNL     1       3.747  -0.203  -0.000  1.00  0.00     0.012 C 
ENDBRANCH   1  10
TORSDOF 3
