REMARK  6 active torsions:
REMARK  status: ('A' for Active; 'I' for Inactive)
REMARK    1  A    between atoms: C_2  and  O_3 
REMARK    2  A    between atoms: O_3  and  C_4 
REMARK    3  A    between atoms: C_4  and  C_5 
REMARK    4  A    between atoms: C_5  and  C_6 
REMARK    5  A    between atoms: C_6  and  N_7 
REMARK       I    between atoms: N_7  and  C_8 
REMARK    6  A    between atoms: C_8  and  S_10 
ROOT
HETATM    1  C   UNL     1       2.550   3.313  -0.815  1.00  0.00     0.125 C 
ENDROOT
BRANCH   1   2
HETATM    2  C   UNL     1       3.627   3.491   0.254  1.00  0.00     0.046 C 
BRANCH   2   3
HETATM    3  C   UNL     1       3.952   2.203   1.012  1.00  0.00     0.169 C 
BRANCH   3   4
HETATM    4  O   UNL     1       5.368   2.044   1.162  1.00  0.00    -0.391 OA
BRANCH   4   5
HETATM    5  C   UNL     1       6.062   1.500   0.000  1.00  0.00     0.163 C 
HETATM    6  C   UNL     1       6.062   0.500   0.000  1.00  0.00     0.033 C 
ENDBRANCH   4   5
ENDBRANCH   3   4
ENDBRANCH   2   3
ENDBRANCH   1   2
BRANCH   1   7
HETATM    7  N   UNL     1       1.212   3.275  -0.254  1.00  0.00    -0.352 N 
HETATM    8  C   UNL     1       0.394   2.201  -0.003  1.00  0.00     0.279 C 
HETATM    9  O   UNL     1      -0.700   2.348   0.526  1.00  0.00    -0.260 OA
HETATM   10  H   UNL     1       0.784   4.155   0.007  1.00  0.00     0.163 HD
BRANCH   8  11
HETATM   11  S   UNL     1       1.002   0.638  -0.495  1.00  0.00    -0.074 SA
HETATM   12  C   UNL     1      -0.257  -0.445   0.191  1.00  0.00     0.100 C 
ENDBRANCH   8  11
ENDBRANCH   1   7
TORSDOF 6
