REMARK  9 active torsions:
REMARK  status: ('A' for Active; 'I' for Inactive)
REMARK    1  A    between atoms: C_2  and  O_3 
REMARK    2  A    between atoms: C_7  and  C_8 
REMARK    3  A    between atoms: C_8  and  C_9 
REMARK    4  A    between atoms: C_9  and  O_10 
REMARK    5  A    between atoms: O_10  and  C_11 
REMARK    6  A    between atoms: C_11  and  C_12 
REMARK    7  A    between atoms: C_12  and  C_13 
REMARK    8  A    between atoms: C_12  and  S_15 
REMARK    9  A    between atoms: C_13  and  O_14 
ROOT
HETATM    1  C   UNL     1       2.572   1.032  -0.677  1.00  0.00     0.167 C 
ENDROOT
BRANCH   1   2
HETATM    2  C   UNL     1       1.188   1.232   0.042  1.00  0.00     0.026 C 
BRANCH   2   3
HETATM    3  C   UNL     1       0.000   0.000   0.000  1.00  0.00    -0.002 A 
HETATM    4 SI   UNL     1       0.000  -1.000   0.000  1.00  0.00     0.000 Si
HETATM    5  O   UNL     1      -1.000  -1.000   0.000  1.00  0.00     0.000 OA
HETATM    6  C   UNL     1       0.000  -2.000   0.000  1.00  0.00     0.000 A 
HETATM    7  C   UNL     1       1.000  -1.000   0.000  1.00  0.00     0.005 A 
BRANCH   5   8
HETATM    8  C   UNL     1      -2.285  -0.101   0.032  1.00  0.00    -0.005 C 
HETATM    9  C   UNL     1      -2.110   1.530   0.006  1.00  0.00     0.005 C 
ENDBRANCH   5   8
ENDBRANCH   2   3
ENDBRANCH   1   2
BRANCH   1  10
HETATM   10  O   UNL     1       3.060  -0.137  -1.406  1.00  0.00    -0.390 OA
BRANCH  10  11
HETATM   11  C   UNL     1       4.194  -0.943  -0.782  1.00  0.00     0.184 C 
BRANCH  11  12
HETATM   12  C   UNL     1       5.287  -0.144   0.122  1.00  0.00     0.094 C 
BRANCH  12  13
HETATM   13  C   UNL     1       6.644  -0.769   0.178  1.00  0.00     0.181 C 
BRANCH  13  14
HETATM   14  O   UNL     1       7.681   0.302   0.186  1.00  0.00    -0.400 OA
HETATM   15  H   UNL     1       8.553  -0.089  -0.104  1.00  0.00     0.209 HD
ENDBRANCH  13  14
ENDBRANCH  12  13
BRANCH  12  16
HETATM   16  S   UNL     1       5.373   1.306  -1.030  1.00  0.00    -0.164 SA
HETATM   17  C   UNL     1       5.849   2.728  -0.106  1.00  0.00     0.090 C 
ENDBRANCH  12  16
ENDBRANCH  11  12
ENDBRANCH  10  11
ENDBRANCH   1  10
TORSDOF 9
