REMARK  5 active torsions:
REMARK  status: ('A' for Active; 'I' for Inactive)
REMARK    1  A    between atoms: C_2  and  S_4 
REMARK    2  A    between atoms: S_4  and  C_5 
REMARK    3  A    between atoms: C_5  and  C_6 
REMARK    4  A    between atoms: C_6  and  C_7 
REMARK    5  A    between atoms: C_7  and  N_8 
ROOT
HETATM    1  C   UNL     1       1.792   0.637  -0.833  1.00  0.00     0.146 C 
ENDROOT
BRANCH   1   2
HETATM    2  C   UNL     1       1.417   2.124  -0.797  1.00  0.00     0.032 C 
BRANCH   2   3
HETATM    3  C   UNL     1       1.648   2.878   0.520  1.00  0.00     0.084 C 
BRANCH   3   4
HETATM    4  S   UNL     1       3.226   2.559   1.372  1.00  0.00    -0.093 SA
BRANCH   4   5
HETATM    5  C   UNL     1       4.343   2.867   0.052  1.00  0.00     0.182 C 
HETATM    6  C   UNL     1       5.398   1.817  -0.139  1.00  0.00     0.104 C 
HETATM    7  O   UNL     1       4.213   3.825  -0.692  1.00  0.00    -0.286 OA
ENDBRANCH   4   5
ENDBRANCH   3   4
ENDBRANCH   2   3
ENDBRANCH   1   2
BRANCH   1   8
HETATM    8  N   UNL     1       0.881  -0.241  -0.136  1.00  0.00    -0.283 N 
HETATM    9  N   UNL     1       0.337   0.104   1.038  1.00  0.00     0.004 NA
HETATM   10  N   UNL     1      -0.605  -0.787   1.317  1.00  0.00    -0.164 NA
HETATM   11  C   UNL     1      -0.605  -1.730   0.322  1.00  0.00     0.065 A 
HETATM   12  C   UNL     1       0.395  -1.436  -0.577  1.00  0.00     0.136 A 
HETATM   13  C   UNL     1      -1.605  -2.808   0.302  1.00  0.00     0.073 C 
ENDBRANCH   1   8
TORSDOF 5
