REMARK  3 active torsions:
REMARK  status: ('A' for Active; 'I' for Inactive)
REMARK    1  A    between atoms: S_2  and  C_3 
REMARK    2  A    between atoms: C_3  and  N_5 
REMARK    3  A    between atoms: N_5  and  C_6 
ROOT
HETATM    1  C   UNL     1       1.112  -0.729  -1.320  1.00  0.00     0.034 A 
HETATM    2  C   UNL     1       1.090  -2.126  -1.241  1.00  0.00     0.032 A 
HETATM    3  C   UNL     1       0.012  -2.781  -0.645  1.00  0.00     0.045 A 
HETATM    4  C   UNL     1      -1.060  -2.040  -0.161  1.00  0.00     0.122 A 
HETATM    5  F   UNL     1      -2.109  -2.688   0.364  1.00  0.00    -0.206 F 
HETATM    6  C   UNL     1      -1.068  -0.646  -0.237  1.00  0.00    -0.021 A 
HETATM    7  C   UNL     1      -2.277   0.133   0.182  1.00  0.00     0.051 C 
HETATM    8  C   UNL     1       0.032   0.004  -0.819  1.00  0.00     0.039 A 
ENDROOT
BRANCH   1   9
HETATM    9  N   UNL     1       2.175  -0.138  -2.031  1.00  0.00    -0.342 N 
HETATM   10  H   UNL     1       2.563  -0.709  -2.777  1.00  0.00     0.167 HD
BRANCH   9  11
HETATM   11  C   UNL     1       2.609   1.162  -2.056  1.00  0.00     0.138 C 
HETATM   12  S   UNL     1       3.313   1.765  -3.449  1.00  0.00    -0.053 SA
BRANCH  11  13
HETATM   13  S   UNL     1       2.623   2.056  -0.551  1.00  0.00    -0.105 SA
HETATM   14  C   UNL     1       3.889   1.101   0.326  1.00  0.00     0.098 C 
ENDBRANCH  11  13
ENDBRANCH   9  11
ENDBRANCH   1   9
TORSDOF 3
