REMARK  3 active torsions:
REMARK  status: ('A' for Active; 'I' for Inactive)
REMARK    1  A    between atoms: N_4  and  C_5 
REMARK    2  A    between atoms: C_5  and  C_6 
REMARK    3  A    between atoms: C_9  and  C_10 
REMARK       I    between atoms: C_10  and  N_11 
ROOT
HETATM    1  C   UNL     1      -4.328   0.881   0.016  1.00  0.00    -0.039 A 
HETATM    2  C   UNL     1      -4.366  -0.307   0.768  1.00  0.00     0.010 A 
HETATM    3  C   UNL     1      -5.520  -1.091   0.811  1.00  0.00     0.017 A 
HETATM    4  C   UNL     1      -6.682  -0.670   0.162  1.00  0.00     0.031 A 
HETATM    5  C   UNL     1      -6.683   0.549  -0.525  1.00  0.00     0.017 A 
HETATM    6  C   UNL     1      -5.515   1.318  -0.594  1.00  0.00     0.010 A 
ENDROOT
BRANCH   1   7
HETATM    7  C   UNL     1      -3.069   1.718  -0.135  1.00  0.00     0.184 C 
BRANCH   7   8
HETATM    8  N   UNL     1      -1.833   0.960  -0.003  1.00  0.00    -0.279 N 
HETATM    9  C   UNL     1      -1.488  -0.224  -0.594  1.00  0.00     0.136 C 
HETATM   10  C   UNL     1      -0.403  -0.646   0.141  1.00  0.00     0.065 C 
HETATM   11  C   UNL     1       0.282  -1.952   0.154  1.00  0.00     0.073 C 
HETATM   12  N   UNL     1      -0.035   0.347   1.010  1.00  0.00    -0.164 NA
HETATM   13  N   UNL     1      -0.906   1.339   0.895  1.00  0.00     0.004 NA
ENDBRANCH   7   8
ENDBRANCH   1   7
BRANCH   4  14
HETATM   14  C   UNL     1      -7.866  -1.569   0.195  1.00  0.00     0.249 C 
HETATM   15  N   UNL     1      -9.097  -1.000   0.019  1.00  0.00    -0.366 N 
HETATM   16  H   UNL     1      -9.251  -0.005   0.106  1.00  0.00     0.159 HD
HETATM   17  H   UNL     1      -9.890  -1.611   0.146  1.00  0.00     0.159 HD
HETATM   18  O   UNL     1      -7.754  -2.769   0.396  1.00  0.00    -0.268 OA
ENDBRANCH   4  14
TORSDOF 3
