REMARK  2 active torsions:
REMARK  status: ('A' for Active; 'I' for Inactive)
REMARK    1  A    between atoms: C_4  and  S_6 
REMARK    2  A    between atoms: S_6  and  C_7 
ROOT
HETATM    1  C   UNL     1       2.598   0.500   0.000  1.00  0.00     0.102 A 
HETATM    2  C   UNL     1       2.598   1.500   0.000  1.00  0.00     0.080 A 
HETATM    3  O   UNL     1       3.730   2.059   0.035  1.00  0.00    -0.305 OA
HETATM    4  C   UNL     1       1.732   2.000   0.000  1.00  0.00     0.103 A 
HETATM    5  C   UNL     1       1.732   3.000   0.000  1.00  0.00     0.102 A 
ENDROOT
BRANCH   4   6
HETATM    6  S   UNL     1       0.323   1.322  -1.293  1.00  0.00    -0.091 SA
BRANCH   6   7
HETATM    7  C   UNL     1      -0.352   0.028  -0.293  1.00  0.00     0.304 C 
HETATM    8  O   UNL     1      -1.541   0.002  -0.001  1.00  0.00    -0.295 OA
ENDBRANCH   6   7
ENDBRANCH   4   6
TORSDOF 2
