REMARK  1 active torsions:
REMARK  status: ('A' for Active; 'I' for Inactive)
REMARK    1  A    between atoms: O_4  and  C_5 
ROOT
HETATM    1  C   UNL     1       1.000  -1.414   0.000  1.00  0.00     0.017 A 
HETATM    2  C   UNL     1       1.707  -0.707   0.000  1.00  0.00    -0.023 A 
HETATM    3  C   UNL     1       2.414  -1.414   0.000  1.00  0.00     0.017 A 
HETATM    4  O   UNL     1       2.414   0.000   0.000  1.00  0.00     0.000 OA
HETATM    5  C   UNL     1       1.000   0.000   0.000  1.00  0.00     0.064 A 
HETATM    6  C   UNL     1      -0.725   0.126   0.338  1.00  0.00     0.034 C 
HETATM    7  C   UNL     1      -0.412   1.588   0.658  1.00  0.00     0.088 C 
HETATM    8  N   UNL     1       0.866   1.143   1.255  1.00  0.00    -0.319 N 
HETATM    9  H   UNL     1       1.579   1.869   1.228  1.00  0.00     0.122 HD
ENDROOT
BRANCH   4  10
HETATM   10  C   UNL     1       3.561   0.499   0.671  1.00  0.00     0.299 C 
HETATM   11  O   UNL     1       4.167   0.021   1.618  1.00  0.00    -0.299 OA
ENDBRANCH   4  10
TORSDOF 1
