REMARK  3 active torsions:
REMARK  status: ('A' for Active; 'I' for Inactive)
REMARK    1  A    between atoms: C_4  and  O_5 
REMARK    2  A    between atoms: C_8  and  N_9 
REMARK    3  A    between atoms: C_15  and  O_16 
ROOT
HETATM    1  C   UNL     1      -2.128  -0.762   1.435  1.00  0.00     0.049 C 
HETATM    2  C   UNL     1      -1.598  -0.283   0.295  1.00  0.00     0.071 C 
HETATM    3  O   UNL     1      -2.440  -0.130  -0.798  1.00  0.00    -0.323 OA
HETATM    4  C   UNL     1      -2.160   1.111  -1.431  1.00  0.00     0.267 C 
HETATM    5  C   UNL     1      -0.645   1.247  -1.540  1.00  0.00     0.091 C 
HETATM    6  C   UNL     1       0.000   1.000   0.000  1.00  0.00     0.145 C 
HETATM    7  C   UNL     1       0.000   0.000   0.000  1.00  0.00     0.198 C 
ENDROOT
BRANCH   6   8
HETATM    8  N   UNL     1       1.605   1.300  -0.397  1.00  0.00    -0.275 N 
HETATM    9  N   UNL     1       2.602   0.411  -0.167  1.00  0.00     0.005 NA
HETATM   10  N   UNL     1       3.749   1.081  -0.196  1.00  0.00    -0.164 NA
HETATM   11  C   UNL     1       3.478   2.398  -0.463  1.00  0.00     0.065 A 
HETATM   12  C   UNL     1       2.127   2.550  -0.652  1.00  0.00     0.136 A 
HETATM   13  C   UNL     1       4.526   3.437  -0.471  1.00  0.00     0.073 C 
ENDBRANCH   6   8
BRANCH   7  14
HETATM   14  O   UNL     1       0.578  -0.163   1.449  1.00  0.00    -0.387 OA
HETATM   15  H   UNL     1       1.522  -0.405   1.318  1.00  0.00     0.210 HD
ENDBRANCH   7  14
BRANCH   4  16
HETATM   16  O   UNL     1      -2.663   2.240  -0.714  1.00  0.00    -0.366 OA
HETATM   17  C   UNL     1      -4.040   2.090  -0.382  1.00  0.00     0.204 C 
ENDBRANCH   4  16
TORSDOF 3
