REMARK  2 active torsions:
REMARK  status: ('A' for Active; 'I' for Inactive)
REMARK    1  A    between atoms: C_4  and  O_5 
REMARK    2  A    between atoms: O_5  and  C_6 
ROOT
HETATM    1  C   UNL     1      -0.866  -1.500   0.000  1.00  0.00     0.042 C 
HETATM    2  C   UNL     1      -0.866  -0.500   0.000  1.00  0.00     0.218 C 
HETATM    3  C   UNL     1      -2.290   0.150  -0.036  1.00  0.00     0.067 C 
HETATM    4  C   UNL     1      -2.329   1.540  -0.693  1.00  0.00     0.135 C 
HETATM    5  C   UNL     1      -1.093   2.361  -0.343  1.00  0.00     0.062 C 
HETATM    6  C   UNL     1       0.199   1.614  -0.654  1.00  0.00     0.272 C 
HETATM    7  N   UNL     1      -0.026   0.211  -1.019  1.00  0.00     0.087 N 
HETATM    8  H   UNL     1       0.885  -0.244  -1.112  1.00  0.00     0.316 HD
ENDROOT
BRANCH   4   9
HETATM    9  O   UNL     1      -3.483   2.272  -0.234  1.00  0.00    -0.323 OA
BRANCH   9  10
HETATM   10  C   UNL     1      -4.669   1.963  -0.805  1.00  0.00     0.398 C 
HETATM   11  O   UNL     1      -5.727   2.500  -0.506  1.00  0.00    -0.276 OA
ENDBRANCH   9  10
ENDBRANCH   4   9
TORSDOF 2
