REMARK  2 active torsions:
REMARK  status: ('A' for Active; 'I' for Inactive)
REMARK    1  A    between atoms: S_2  and  C_3 
REMARK       I    between atoms: C_3  and  N_5 
REMARK       I    between atoms: N_5  and  C_6 
REMARK    2  A    between atoms: C_6  and  C_8 
ROOT
HETATM    1  C   UNL     1       3.307   0.037  -1.305  1.00  0.00     0.234 C 
HETATM    2  O   UNL     1       3.669  -0.001  -2.469  1.00  0.00    -0.269 OA
HETATM    3  N   UNL     1       2.142   0.519  -0.791  1.00  0.00    -0.191 NA
HETATM    4  C   UNL     1       0.995  -0.089  -1.246  1.00  0.00     0.212 C 
HETATM    5  O   UNL     1       0.658  -0.085  -2.427  1.00  0.00    -0.279 OA
HETATM    6  H   UNL     1       2.215   0.557   0.214  1.00  0.00     0.140 HD
ENDROOT
BRANCH   1   7
HETATM    7  S   UNL     1       4.330  -0.500   0.000  1.00  0.00    -0.217 SA
HETATM    8  C   UNL     1       4.330  -1.500   0.000  1.00  0.00     0.274 C 
ENDBRANCH   1   7
BRANCH   4   9
HETATM    9  C   UNL     1       0.091  -0.679  -0.138  1.00  0.00     0.025 C 
HETATM   10  C   UNL     1      -1.066  -1.461  -0.786  1.00  0.00     0.024 C 
HETATM   11  C   UNL     1       0.879  -1.658   0.749  1.00  0.00     0.024 C 
HETATM   12  C   UNL     1      -0.485   0.455   0.720  1.00  0.00     0.024 C 
ENDBRANCH   4   9
TORSDOF 2
