REMARK  3 active torsions:
REMARK  status: ('A' for Active; 'I' for Inactive)
REMARK    1  A    between atoms: C_2  and  C_3 
REMARK    2  A    between atoms: C_2  and  C_11 
REMARK    3  A    between atoms: C_9  and  O_10 
ROOT
HETATM    1  C   UNL     1       0.989   0.055   0.207  1.00  0.00    -0.011 C 
HETATM    2  C   UNL     1      -0.237  -0.529   0.228  1.00  0.00    -0.024 C 
HETATM    3  C   UNL     1      -0.530  -2.000   0.055  1.00  0.00     0.068 C 
HETATM    4  C   UNL     1      -2.005  -2.385   0.120  1.00  0.00     0.179 C 
HETATM    5  O   UNL     1      -2.893  -1.483  -0.529  1.00  0.00    -0.360 OA
HETATM    6  C   UNL     1      -2.642  -0.165  -0.164  1.00  0.00     0.171 C 
HETATM    7  C   UNL     1      -1.464   0.313   0.241  1.00  0.00     0.093 C 
ENDROOT
BRANCH   1   8
HETATM    8  C   UNL     1       2.598  -0.500   0.000  1.00  0.00     0.022 C 
HETATM    9  C   UNL     1       3.807   0.358   0.903  1.00  0.00     0.016 C 
BRANCH   8  10
HETATM   10  C   UNL     1       2.598  -1.500   0.000  1.00  0.00     0.119 A 
HETATM   11  N   UNL     1       3.464  -2.000   0.000  1.00  0.00    -0.420 N 
HETATM   12  C   UNL     1       3.464  -3.000   0.000  1.00  0.00     0.147 A 
HETATM   13  C   UNL     1       4.878  -1.709  -0.391  1.00  0.00     0.142 C 
ENDBRANCH   8  10
ENDBRANCH   1   8
BRANCH   7  14
HETATM   14  O   UNL     1      -1.365   1.620   0.640  1.00  0.00    -0.358 OA
HETATM   15  H   UNL     1      -0.622   1.698   1.257  1.00  0.00     0.217 HD
ENDBRANCH   7  14
TORSDOF 3
