REMARK  10 active torsions:
REMARK  status: ('A' for Active; 'I' for Inactive)
REMARK    1  A    between atoms: S_2  and  C_3 
REMARK    2  A    between atoms: C_3  and  C_4 
REMARK    3  A    between atoms: C_3  and  C_16 
REMARK    4  A    between atoms: C_4  and  O_6 
REMARK    5  A    between atoms: O_6  and  C_7 
REMARK    6  A    between atoms: C_7  and  C_8 
REMARK    7  A    between atoms: C_8  and  O_9 
REMARK    8  A    between atoms: O_9  and  C_10 
REMARK    9  A    between atoms: C_10  and  C_12 
REMARK   10  A    between atoms: C_16  and  O_18 
ROOT
HETATM    1  O   UNL     1       4.121   0.787  -1.459  1.00  0.00    -0.318 OA
ENDROOT
BRANCH   1   2
HETATM    2  C   UNL     1       5.391   0.481  -1.063  1.00  0.00     0.272 C 
HETATM    3  O   UNL     1       6.218   1.325  -0.753  1.00  0.00    -0.264 OA
BRANCH   2   4
HETATM    4  C   UNL     1       5.632  -1.049  -1.126  1.00  0.00     0.144 C 
BRANCH   4   5
HETATM    5  S   UNL     1       7.062  -1.500   0.000  1.00  0.00    -0.280 SA
HETATM    6  C   UNL     1       7.062  -2.500   0.000  1.00  0.00     0.250 C 
ENDBRANCH   4   5
BRANCH   4   7
HETATM    7  C   UNL     1       4.331  -1.856  -0.859  1.00  0.00     0.135 C 
HETATM    8  C   UNL     1       3.760  -1.695   0.545  1.00  0.00     0.041 C 
BRANCH   7   9
HETATM    9  O   UNL     1       4.520  -3.249  -1.140  1.00  0.00    -0.394 OA
HETATM   10  H   UNL     1       4.695  -3.716  -0.304  1.00  0.00     0.210 HD
ENDBRANCH   7   9
ENDBRANCH   4   7
ENDBRANCH   2   4
ENDBRANCH   1   2
BRANCH   1  11
HETATM   11  C   UNL     1       3.726   2.176  -1.395  1.00  0.00     0.205 C 
BRANCH  11  12
HETATM   12  C   UNL     1       3.499   2.642   0.046  1.00  0.00     0.205 C 
BRANCH  12  13
HETATM   13  O   UNL     1       2.709   1.683   0.773  1.00  0.00    -0.317 OA
BRANCH  13  14
HETATM   14  C   UNL     1       1.367   1.727   0.579  1.00  0.00     0.290 C 
HETATM   15  O   UNL     1       0.776   2.582  -0.064  1.00  0.00    -0.262 OA
BRANCH  14  16
HETATM   16  C   UNL     1       0.717   0.534   1.172  1.00  0.00     0.250 A 
HETATM   17  O   UNL     1      -0.384   0.774   2.064  1.00  0.00    -0.365 OA
HETATM   18  C   UNL     1      -0.690   0.100   0.836  1.00  0.00     0.157 A 
HETATM   19  C   UNL     1      -1.613   0.861  -0.048  1.00  0.00     0.042 C 
ENDBRANCH  14  16
ENDBRANCH  13  14
ENDBRANCH  12  13
ENDBRANCH  11  12
ENDBRANCH   1  11
TORSDOF 10
