REMARK  3 active torsions:
REMARK  status: ('A' for Active; 'I' for Inactive)
REMARK    1  A    between atoms: C_7  and  O_8 
REMARK    2  A    between atoms: O_8  and  C_9 
REMARK    3  A    between atoms: C_9  and  C_11 
ROOT
HETATM    1  C   UNL     1      -0.999   1.730  -0.589  1.00  0.00     0.298 C 
HETATM    2  O   UNL     1      -1.094   2.865  -1.054  1.00  0.00    -0.262 OA
ENDROOT
BRANCH   1   3
HETATM    3  O   UNL     1       0.128   1.000  -0.823  1.00  0.00    -0.271 OA
BRANCH   3   4
HETATM    4  C   UNL     1       0.610  -0.206  -0.260  1.00  0.00     0.146 C 
HETATM    5  C   UNL     1       1.471  -1.063  -1.129  1.00  0.00     0.186 C 
HETATM    6  O   UNL     1       1.729  -0.741  -2.286  1.00  0.00    -0.290 OA
HETATM    7  C   UNL     1       2.094  -2.279  -0.495  1.00  0.00     0.112 C 
HETATM    8  C   UNL     1       1.140  -2.784   0.564  1.00  0.00     0.182 C 
HETATM    9  O   UNL     1       0.905  -1.780   1.561  1.00  0.00    -0.360 OA
HETATM   10  C   UNL     1       0.500  -0.581   1.024  1.00  0.00     0.175 C 
ENDBRANCH   3   4
ENDBRANCH   1   3
BRANCH   1  11
HETATM   11  C   UNL     1      -2.075   1.156   0.335  1.00  0.00     0.324 C 
HETATM   12  N   UNL     1      -2.467  -0.268   0.081  1.00  0.00     0.102 N 
HETATM   13  C   UNL     1      -3.951  -0.263   0.130  1.00  0.00     0.222 C 
HETATM   14  H   UNL     1      -2.132  -0.838   0.859  1.00  0.00     0.317 HD
HETATM   15  C   UNL     1      -4.445   0.271  -1.217  1.00  0.00     0.036 C 
HETATM   16  C   UNL     1      -4.274   0.892   1.069  1.00  0.00     0.043 C 
HETATM   17  C   UNL     1      -4.072   1.758  -1.137  1.00  0.00     0.009 C 
HETATM   18  C   UNL     1      -3.433   1.877   0.264  1.00  0.00     0.031 C 
ENDBRANCH   1  11
TORSDOF 3
