REMARK  5 active torsions:
REMARK  status: ('A' for Active; 'I' for Inactive)
REMARK    1  A    between atoms: S_2  and  C_3 
REMARK    2  A    between atoms: C_3  and  C_4 
REMARK    3  A    between atoms: C_4  and  O_5 
REMARK    4  A    between atoms: C_4  and  C_6 
REMARK    5  A    between atoms: C_6  and  C_7 
ROOT
HETATM    1  C   UNL     1       0.592   0.898   0.141  1.00  0.00     0.126 C 
ENDROOT
BRANCH   1   2
HETATM    2  C   UNL     1       1.805   1.468  -0.624  1.00  0.00     0.071 C 
BRANCH   2   3
HETATM    3  S   UNL     1       3.464   1.000   0.000  1.00  0.00    -0.292 SA
HETATM    4  C   UNL     1       3.464   0.000   0.000  1.00  0.00     0.248 C 
ENDBRANCH   2   3
ENDBRANCH   1   2
BRANCH   1   5
HETATM    5  O   UNL     1      -0.516   1.775  -0.060  1.00  0.00    -0.395 OA
HETATM    6  H   UNL     1      -0.317   2.622   0.377  1.00  0.00     0.210 HD
ENDBRANCH   1   5
BRANCH   1   7
HETATM    7  C   UNL     1       0.214  -0.513  -0.339  1.00  0.00     0.047 C 
BRANCH   7   8
HETATM    8  C   UNL     1      -1.055  -1.076   0.301  1.00  0.00     0.117 C 
HETATM    9 CL   UNL     1      -2.536  -0.571  -0.547  1.00  0.00    -0.130 Cl
ENDBRANCH   7   8
ENDBRANCH   1   7
TORSDOF 5
