REMARK  5 active torsions:
REMARK  status: ('A' for Active; 'I' for Inactive)
REMARK    1  A    between atoms: C_2  and  C_3 
REMARK    2  A    between atoms: C_3  and  O_4 
REMARK    3  A    between atoms: O_4  and  C_5 
REMARK    4  A    between atoms: C_5  and  C_7 
REMARK    5  A    between atoms: C_7  and  S_9 
ROOT
HETATM    1  C   UNL     1       1.732   2.000   0.000  1.00  0.00     0.198 C 
HETATM    2  C   UNL     1       1.732   3.000   0.000  1.00  0.00     0.048 C 
ENDROOT
BRANCH   1   3
HETATM    3  O   UNL     1       2.890   1.470   0.732  1.00  0.00    -0.374 OA
BRANCH   3   4
HETATM    4  C   UNL     1       4.167   1.912   0.249  1.00  0.00     0.195 C 
BRANCH   4   5
HETATM    5  C   UNL     1       5.127   0.777   0.063  1.00  0.00    -0.011 C 
HETATM    6  C   UNL     1       4.859  -0.536   0.147  1.00  0.00     0.009 C 
ENDBRANCH   4   5
ENDBRANCH   3   4
ENDBRANCH   1   3
BRANCH   1   7
HETATM    7  C   UNL     1       0.492   1.142   0.458  1.00  0.00     0.213 C 
HETATM    8  O   UNL     1      -0.594   1.616   0.776  1.00  0.00    -0.283 OA
BRANCH   7   9
HETATM    9  S   UNL     1       0.724  -0.618   0.358  1.00  0.00    -0.094 SA
HETATM   10  C   UNL     1      -0.987  -1.172   0.258  1.00  0.00     0.099 C 
ENDBRANCH   7   9
ENDBRANCH   1   7
TORSDOF 5
