REMARK  2 active torsions:
REMARK  status: ('A' for Active; 'I' for Inactive)
REMARK    1  A    between atoms: C_2  and  N_3 
REMARK    2  A    between atoms: C_6  and  O_7 
ROOT
HETATM    1  N   UNL     1       0.836  -0.881   0.027  1.00  0.00    -0.358 N 
HETATM    2  C   UNL     1      -0.037  -1.990   0.365  1.00  0.00     0.132 C 
HETATM    3  C   UNL     1      -1.386  -1.358   0.480  1.00  0.00     0.041 A 
HETATM    4  C   UNL     1      -2.144  -0.893  -0.730  1.00  0.00     0.130 A 
HETATM    5  C   UNL     1      -1.284   0.070   0.045  1.00  0.00     0.041 A 
HETATM    6  C   UNL     1       0.138   0.341  -0.324  1.00  0.00     0.132 C 
ENDROOT
BRANCH   1   7
HETATM    7  C   UNL     1       2.198  -1.006   0.025  1.00  0.00     0.350 C 
HETATM    8  O   UNL     1       2.818  -2.026   0.300  1.00  0.00    -0.284 OA
ENDBRANCH   1   7
BRANCH   4   9
HETATM    9  O   UNL     1      -3.559  -0.777  -0.531  1.00  0.00    -0.395 OA
HETATM   10  H   UNL     1      -3.857   0.147  -0.583  1.00  0.00     0.210 HD
ENDBRANCH   4   9
TORSDOF 2
