REMARK  2 active torsions:
REMARK  status: ('A' for Active; 'I' for Inactive)
REMARK    1  A    between atoms: S_2  and  C_3 
REMARK       I    between atoms: C_3  and  N_5 
REMARK    2  A    between atoms: N_5  and  C_6 
ROOT
HETATM    1  C   UNL     1      -0.343  -0.911   0.000  1.00  0.00     0.079 A 
HETATM    2  C   UNL     1       0.044  -2.267   0.000  1.00  0.00     0.078 A 
HETATM    3  C   UNL     1      -0.904  -3.281  -0.000  1.00  0.00     0.159 A 
HETATM    4  F   UNL     1      -0.503  -4.559  -0.000  1.00  0.00    -0.203 F 
HETATM    5  C   UNL     1      -2.236  -2.932  -0.000  1.00  0.00     0.166 A 
HETATM    6 CL   UNL     1      -3.481  -4.108  -0.000  1.00  0.00    -0.059 Cl
HETATM    7  N   UNL     1      -2.669  -1.658   0.000  1.00  0.00    -0.219 NA
HETATM    8  C   UNL     1      -1.729  -0.674   0.000  1.00  0.00     0.154 A 
HETATM    9 CL   UNL     1      -2.531   0.840   0.000  1.00  0.00    -0.060 Cl
ENDROOT
BRANCH   1  10
HETATM   10  N   UNL     1       0.761  -0.015   0.000  1.00  0.00    -0.315 N 
HETATM   11  C   UNL     1       0.821   1.351   0.000  1.00  0.00     0.283 C 
HETATM   12  O   UNL     1      -0.119   2.124   0.000  1.00  0.00    -0.260 OA
HETATM   13  H   UNL     1       1.651  -0.469  -0.000  1.00  0.00     0.170 HD
BRANCH  11  14
HETATM   14  S   UNL     1       2.428   2.063  -0.000  1.00  0.00    -0.073 SA
HETATM   15  C   UNL     1       3.702   0.859   0.000  1.00  0.00     0.100 C 
ENDBRANCH  11  14
ENDBRANCH   1  10
TORSDOF 2
