REMARK  4 active torsions:
REMARK  status: ('A' for Active; 'I' for Inactive)
REMARK    1  A    between atoms: S_2  and  C_3 
REMARK       I    between atoms: C_3  and  N_5 
REMARK    2  A    between atoms: N_5  and  C_6 
REMARK    3  A    between atoms: C_6  and  C_7 
REMARK    4  A    between atoms: C_7  and  C_8 
ROOT
HETATM    1  C   UNL     1       1.226  -0.496   0.078  1.00  0.00     0.058 C 
ENDROOT
BRANCH   1   2
HETATM    2  C   UNL     1       0.961   0.962   0.462  1.00  0.00     0.128 C 
BRANCH   2   3
HETATM    3  N   UNL     1       2.187   1.702   0.652  1.00  0.00    -0.352 N 
HETATM    4  C   UNL     1       2.210   3.066   0.559  1.00  0.00     0.279 C 
HETATM    5  O   UNL     1       1.262   3.781   0.292  1.00  0.00    -0.260 OA
HETATM    6  H   UNL     1       2.958   1.278   1.149  1.00  0.00     0.163 HD
BRANCH   4   7
HETATM    7  S   UNL     1       3.801   3.701   0.896  1.00  0.00    -0.074 SA
HETATM    8  C   UNL     1       4.790   2.693  -0.233  1.00  0.00     0.100 C 
ENDBRANCH   4   7
ENDBRANCH   2   3
ENDBRANCH   1   2
BRANCH   1   9
HETATM    9  C   UNL     1      -0.006  -1.370  -0.008  1.00  0.00    -0.057 A 
HETATM   10  C   UNL     1      -1.281  -0.856  -0.281  1.00  0.00     0.008 A 
HETATM   11  C   UNL     1      -2.395  -1.697  -0.334  1.00  0.00     0.019 A 
HETATM   12  C   UNL     1      -2.239  -3.065  -0.135  1.00  0.00     0.011 A 
HETATM   13  C   UNL     1      -0.977  -3.601   0.101  1.00  0.00     0.019 A 
HETATM   14 BR   UNL     1      -3.751  -4.197  -0.183  1.00  0.00    -0.051 Br
HETATM   15  C   UNL     1       0.136  -2.758   0.158  1.00  0.00     0.008 A 
ENDBRANCH   1   9
TORSDOF 4
