REMARK  4 active torsions:
REMARK  status: ('A' for Active; 'I' for Inactive)
REMARK    1  A    between atoms: S_2  and  C_3 
REMARK    2  A    between atoms: C_3  and  C_4 
REMARK    3  A    between atoms: C_4  and  N_5 
REMARK    4  A    between atoms: N_5  and  C_6 
ROOT
HETATM    1  C   UNL     1      -0.921  -0.920   0.470  1.00  0.00     0.102 A 
HETATM    2  C   UNL     1      -1.105  -2.241   0.859  1.00  0.00     0.044 A 
HETATM    3  C   UNL     1      -2.322  -2.863   0.592  1.00  0.00     0.005 A 
HETATM    4  C   UNL     1      -3.325  -2.142  -0.034  1.00  0.00     0.019 A 
HETATM    5  C   UNL     1      -3.066  -0.823  -0.368  1.00  0.00     0.118 A 
HETATM    6  N   UNL     1      -1.888  -0.204  -0.132  1.00  0.00    -0.249 NA
ENDROOT
BRANCH   1   7
HETATM    7  N   UNL     1       0.260  -0.226   0.708  1.00  0.00    -0.277 NA
HETATM    8  H   UNL     1       0.117   0.670   0.240  1.00  0.00     0.129 HD
BRANCH   7   9
HETATM    9  C   UNL     1       1.494  -0.910   0.324  1.00  0.00     0.101 C 
BRANCH   9  10
HETATM   10  C   UNL     1       2.642   0.099   0.342  1.00  0.00     0.053 C 
BRANCH  10  11
HETATM   11  S   UNL     1       4.330  -0.500   0.000  1.00  0.00    -0.293 SA
HETATM   12  C   UNL     1       4.330  -1.500   0.000  1.00  0.00     0.247 C 
ENDBRANCH  10  11
ENDBRANCH   9  10
ENDBRANCH   7   9
ENDBRANCH   1   7
TORSDOF 4
