REMARK  2 active torsions:
REMARK  status: ('A' for Active; 'I' for Inactive)
REMARK    1  A    between atoms: C_6  and  O_7 
REMARK    2  A    between atoms: O_7  and  C_8 
ROOT
HETATM    1  C   UNL     1      -0.866  -1.500   0.000  1.00  0.00     0.070 C 
HETATM    2  C   UNL     1      -0.866  -0.500   0.000  1.00  0.00     0.031 A 
HETATM    3  C   UNL     1      -1.985   0.356  -0.015  1.00  0.00     0.036 A 
HETATM    4  C   UNL     1      -1.902   1.763   0.019  1.00  0.00    -0.025 A 
HETATM    5  C   UNL     1      -3.170   2.567   0.037  1.00  0.00     0.051 C 
HETATM    6  C   UNL     1      -0.640   2.344  -0.012  1.00  0.00     0.102 A 
HETATM    7  C   UNL     1       0.445   1.498  -0.066  1.00  0.00     0.154 A 
HETATM    8  N   UNL     1       0.341   0.141  -0.081  1.00  0.00    -0.263 NA
ENDROOT
BRANCH   6   9
HETATM    9  O   UNL     1      -0.571   3.751   0.002  1.00  0.00    -0.284 OA
BRANCH   9  10
HETATM   10  C   UNL     1       0.609   4.488   0.010  1.00  0.00     0.403 C 
HETATM   11  O   UNL     1       1.757   4.084   0.006  1.00  0.00    -0.276 OA
ENDBRANCH   9  10
ENDBRANCH   6   9
TORSDOF 2
