REMARK  4 active torsions:
REMARK  status: ('A' for Active; 'I' for Inactive)
REMARK    1  A    between atoms: C_2  and  C_3 
REMARK    2  A    between atoms: C_3  and  C_4 
REMARK    3  A    between atoms: C_3  and  O_11 
REMARK    4  A    between atoms: C_4  and  N_5 
ROOT
HETATM    1  N   UNL     1      -0.464   0.289   0.209  1.00  0.00    -0.161 NA
HETATM    2  C   UNL     1       0.401  -0.468   0.975  1.00  0.00     0.115 C 
HETATM    3  C   UNL     1       1.309  -0.951   0.000  1.00  0.00     0.066 C 
HETATM    4  C   UNL     1       1.897  -1.760   0.000  1.00  0.00     0.073 C 
HETATM    5  N   UNL     1       0.546  -0.794  -1.234  1.00  0.00    -0.141 NA
HETATM    6  N   UNL     1      -0.651  -0.328  -0.959  1.00  0.00    -0.090 NA
ENDROOT
BRANCH   1   7
HETATM    7  C   UNL     1      -0.153   1.681   0.022  1.00  0.00     0.154 C 
BRANCH   7   8
HETATM    8  C   UNL     1       1.301   1.889  -0.601  1.00  0.00     0.135 C 
BRANCH   8   9
HETATM    9  C   UNL     1       1.675   3.088   0.000  1.00  0.00     0.029 C 
HETATM   10  C   UNL     1       2.541   3.588   0.000  1.00  0.00     0.007 C 
ENDBRANCH   8   9
BRANCH   8  11
HETATM   11  O   UNL     1       2.541   1.588   0.000  1.00  0.00    -0.389 OA
HETATM   12  C   UNL     1       2.541   0.588   0.000  1.00  0.00     0.202 C 
ENDBRANCH   8  11
ENDBRANCH   7   8
ENDBRANCH   1   7
TORSDOF 4
