REMARK  4 active torsions:
REMARK  status: ('A' for Active; 'I' for Inactive)
REMARK    1  A    between atoms: C_2  and  N_3 
REMARK    2  A    between atoms: C_2  and  C_4 
REMARK    3  A    between atoms: C_7  and  O_8 
REMARK    4  A    between atoms: O_8  and  C_9 
ROOT
HETATM    1  C   UNL     1      -0.554  -0.488  -0.184  1.00  0.00     0.182 A 
HETATM    2  N   UNL     1      -1.883  -0.663  -0.094  1.00  0.00    -0.154 NA
HETATM    3  N   UNL     1      -2.307   0.592   0.113  1.00  0.00    -0.238 N 
HETATM    4  C   UNL     1      -1.271   1.483   0.104  1.00  0.00     0.271 A 
HETATM    5  N   UNL     1      -0.146   0.823  -0.053  1.00  0.00    -0.188 NA
HETATM    6  H   UNL     1      -3.299   0.749   0.250  1.00  0.00     0.193 HD
ENDROOT
BRANCH   1   7
HETATM    7  C   UNL     1       0.431  -1.601  -0.468  1.00  0.00     0.286 C 
HETATM    8  C   UNL     1      -0.006  -2.962   0.069  1.00  0.00     0.051 C 
BRANCH   7   9
HETATM    9  N   UNL     1       1.746  -1.262   0.116  1.00  0.00     0.090 N 
HETATM   10  H   UNL     1       1.656  -1.267   1.131  1.00  0.00     0.313 HD
HETATM   11  H   UNL     1       1.923  -0.279  -0.116  1.00  0.00     0.313 HD
ENDBRANCH   7   9
ENDBRANCH   1   7
BRANCH   4  12
HETATM   12  O   UNL     1      -1.312   2.790   0.267  1.00  0.00    -0.250 OA
BRANCH  12  13
HETATM   13  C   UNL     1      -2.439   3.489   0.088  1.00  0.00     0.406 C 
HETATM   14  O   UNL     1      -2.536   4.695   0.255  1.00  0.00    -0.276 OA
ENDBRANCH  12  13
ENDBRANCH   4  12
TORSDOF 4
