REMARK  3 active torsions:
REMARK  status: ('A' for Active; 'I' for Inactive)
REMARK    1  A    between atoms: C_4  and  O_6 
REMARK    2  A    between atoms: O_6  and  C_7 
REMARK    3  A    between atoms: C_7  and  C_8 
ROOT
HETATM    1  C   UNL     1       1.202  -0.222   0.435  1.00  0.00     0.150 C 
HETATM    2  C   UNL     1       0.759  -1.586   0.737  1.00  0.00     0.061 C 
HETATM    3  N   UNL     1       0.405  -2.664   0.986  1.00  0.00    -0.197 NA
ENDROOT
BRANCH   1   4
HETATM    4  C   UNL     1       2.719  -0.096   0.607  1.00  0.00     0.183 C 
BRANCH   4   5
HETATM    5  O   UNL     1       3.464   1.000   0.000  1.00  0.00    -0.381 OA
BRANCH   5   6
HETATM    6  C   UNL     1       3.464   2.000   0.000  1.00  0.00     0.118 A 
HETATM    7  C   UNL     1       4.111   2.341   1.331  1.00  0.00     0.071 A 
HETATM    8  S   UNL     1       5.196   2.000   0.000  1.00  0.00    -0.283 SA
HETATM    9  C   UNL     1       5.196   1.000   0.000  1.00  0.00     0.234 C 
HETATM   10  C   UNL     1       1.923   2.472  -0.190  1.00  0.00     0.045 C 
ENDBRANCH   5   6
ENDBRANCH   4   5
ENDBRANCH   1   4
TORSDOF 3
