REMARK  13 active torsions:
REMARK  status: ('A' for Active; 'I' for Inactive)
REMARK    1  A    between atoms: C_2  and  C_4 
REMARK    2  A    between atoms: C_4  and  C_5 
REMARK    3  A    between atoms: C_5  and  C_7 
REMARK    4  A    between atoms: C_7  and  C_8 
REMARK    5  A    between atoms: C_7  and  N_23 
REMARK    6  A    between atoms: C_8  and  C_10 
REMARK    7  A    between atoms: C_10  and  C_11 
REMARK    8  A    between atoms: C_10  and  C_14 
REMARK    9  A    between atoms: C_11  and  C_12 
REMARK   10  A    between atoms: C_12  and  O_13 
REMARK   11  A    between atoms: C_14  and  C_16 
REMARK   12  A    between atoms: C_25  and  C_26 
REMARK       I    between atoms: C_26  and  N_28 
REMARK   13  A    between atoms: N_28  and  C_29 
ROOT
HETATM    1  C   UNL     1      -1.728   0.751  -1.510  1.00  0.00     0.245 C 
ENDROOT
BRANCH   1   2
HETATM    2  C   UNL     1      -1.163   2.171  -1.609  1.00  0.00     0.165 C 
HETATM    3  O   UNL     1      -1.270   2.835  -2.645  1.00  0.00    -0.295 OA
BRANCH   2   4
HETATM    4  C   UNL     1      -0.372   2.719  -0.444  1.00  0.00     0.158 C 
BRANCH   4   5
HETATM    5  C   UNL     1      -0.418   4.193  -0.185  1.00  0.00     0.130 C 
HETATM    6  C   UNL     1       0.849   4.964  -0.438  1.00  0.00     0.091 C 
HETATM    7  O   UNL     1      -1.395   4.723   0.343  1.00  0.00    -0.298 OA
ENDBRANCH   4   5
ENDBRANCH   2   4
ENDBRANCH   1   2
BRANCH   1   8
HETATM    8  C   UNL     1      -3.215   0.750  -1.139  1.00  0.00     0.170 C 
HETATM    9  O   UNL     1      -4.030   0.556  -2.045  1.00  0.00    -0.294 OA
BRANCH   8  10
HETATM   10  C   UNL     1      -3.644   1.230   0.250  1.00  0.00     0.135 C 
BRANCH  10  11
HETATM   11  C   UNL     1      -3.840   2.751   0.237  1.00  0.00     0.046 C 
BRANCH  11  12
HETATM   12  C   UNL     1      -5.214   3.297  -0.114  1.00  0.00     0.165 C 
BRANCH  12  13
HETATM   13  O   UNL     1      -5.073   4.701  -0.381  1.00  0.00    -0.401 OA
HETATM   14  H   UNL     1      -4.461   5.063   0.285  1.00  0.00     0.209 HD
ENDBRANCH  12  13
ENDBRANCH  11  12
ENDBRANCH  10  11
BRANCH  10  15
HETATM   15  C   UNL     1      -4.754   0.485   0.986  1.00  0.00     0.174 C 
HETATM   16  O   UNL     1      -5.329   1.016   1.941  1.00  0.00    -0.291 OA
BRANCH  15  17
HETATM   17  C   UNL     1      -4.866  -0.987   0.778  1.00  0.00     0.060 A 
HETATM   18  C   UNL     1      -5.917  -1.562   0.028  1.00  0.00     0.185 A 
HETATM   19  C   UNL     1      -5.782  -2.956  -0.168  1.00  0.00     0.056 A 
HETATM   20  O   UNL     1      -6.907  -0.919  -0.456  1.00  0.00    -0.287 OA
HETATM   21  C   UNL     1      -4.699  -3.713   0.306  1.00  0.00     0.004 A 
HETATM   22  C   UNL     1      -3.718  -3.108   1.071  1.00  0.00     0.001 A 
HETATM   23  C   UNL     1      -3.829  -1.752   1.343  1.00  0.00     0.019 A 
ENDBRANCH  15  17
ENDBRANCH  10  15
ENDBRANCH   8  10
ENDBRANCH   1   8
BRANCH   1  24
HETATM   24  N   UNL     1      -0.842  -0.114  -0.714  1.00  0.00    -0.263 N 
HETATM   25  N   UNL     1      -1.250  -0.683   0.424  1.00  0.00     0.006 NA
HETATM   26  N   UNL     1      -0.231  -0.728   1.266  1.00  0.00    -0.153 NA
HETATM   27  C   UNL     1       0.865  -0.264   0.610  1.00  0.00     0.159 C 
HETATM   28  C   UNL     1       0.537  -0.089  -0.729  1.00  0.00     0.148 C 
BRANCH  27  29
HETATM   29  C   UNL     1       2.098   0.121   1.272  1.00  0.00     0.291 C 
HETATM   30  O   UNL     1       2.749  -0.634   1.987  1.00  0.00    -0.265 OA
HETATM   31  N   UNL     1       2.449   1.408   0.987  1.00  0.00    -0.152 N 
HETATM   32  H   UNL     1       1.790   2.152   1.166  1.00  0.00     0.188 HD
BRANCH  31  33
HETATM   33  C   UNL     1       3.679   1.828   0.554  1.00  0.00     0.708 A 
HETATM   34  N   UNL     1       4.710   1.058   0.056  1.00  0.00    -0.194 N 
HETATM   35  C   UNL     1       5.702   1.926  -0.338  1.00  0.00     0.128 A 
HETATM   36  C   UNL     1       4.785  -0.354  -0.211  1.00  0.00     0.175 C 
HETATM   37  C   UNL     1       5.212   3.182  -0.097  1.00  0.00     0.154 A 
HETATM   38  N   UNL     1       3.955   3.115   0.435  1.00  0.00    -0.075 NA
ENDBRANCH  31  33
ENDBRANCH  27  29
ENDBRANCH   1  24
TORSDOF 13
