REMARK  3 active torsions:
REMARK  status: ('A' for Active; 'I' for Inactive)
REMARK    1  A    between atoms: S_2  and  C_3 
REMARK    2  A    between atoms: C_3  and  C_5 
REMARK    3  A    between atoms: N_6  and  N_7 
REMARK       I    between atoms: N_7  and  C_8 
REMARK       I    between atoms: C_8  and  N_9 
ROOT
HETATM    1  N   UNL     1       0.340   0.235  -0.000  1.00  0.00    -0.229 N 
HETATM    2  C   UNL     1      -0.850   0.913  -0.000  1.00  0.00     0.334 C 
HETATM    3  N   UNL     1      -0.661   2.262   0.000  1.00  0.00    -0.351 N 
HETATM    4  O   UNL     1      -1.940   0.372   0.000  1.00  0.00    -0.246 OA
HETATM    5  H   UNL     1       0.328  -0.780   0.000  1.00  0.00     0.194 HD
HETATM    6  H   UNL     1       0.314   2.552  -0.000  1.00  0.00     0.160 HD
HETATM    7  H   UNL     1      -1.419   2.915  -0.000  1.00  0.00     0.160 HD
ENDROOT
BRANCH   1   8
HETATM    8  N   UNL     1       1.484   0.969   0.000  1.00  0.00    -0.179 NA
HETATM    9  C   UNL     1       2.571   0.293   0.000  1.00  0.00     0.201 C 
BRANCH   9  10
HETATM   10  C   UNL     1       3.867   1.051  -0.000  1.00  0.00     0.227 C 
HETATM   11  O   UNL     1       3.940   2.265  -0.000  1.00  0.00    -0.279 OA
BRANCH  10  12
HETATM   12  S   UNL     1       5.196   0.000   0.000  1.00  0.00    -0.091 SA
HETATM   13  C   UNL     1       5.196  -1.000   0.000  1.00  0.00     0.099 C 
ENDBRANCH  10  12
ENDBRANCH   9  10
ENDBRANCH   1   8
TORSDOF 3
