REMARK  9 active torsions:
REMARK  status: ('A' for Active; 'I' for Inactive)
REMARK    1  A    between atoms: N_4  and  C_5 
REMARK    2  A    between atoms: C_5  and  C_6 
REMARK    3  A    between atoms: C_6  and  O_7 
REMARK    4  A    between atoms: O_7  and  C_8 
REMARK    5  A    between atoms: C_8  and  C_9 
REMARK    6  A    between atoms: C_9  and  O_10 
REMARK    7  A    between atoms: O_10  and  N_11 
REMARK       I    between atoms: N_11  and  C_12 
REMARK    8  A    between atoms: C_12  and  O_14 
REMARK    9  A    between atoms: O_14  and  C_15 
ROOT
HETATM    1  C   UNL     1       1.613  -6.561  -0.226  1.00  0.00     0.227 C 
ENDROOT
BRANCH   1   2
HETATM    2  C   UNL     1       2.141  -5.142  -0.447  1.00  0.00     0.196 C 
BRANCH   2   3
HETATM    3  O   UNL     1       1.093  -4.218  -0.733  1.00  0.00    -0.387 OA
BRANCH   3   4
HETATM    4  C   UNL     1       0.306  -3.877   0.410  1.00  0.00     0.189 C 
BRANCH   4   5
HETATM    5  C   UNL     1      -0.780  -2.909  -0.038  1.00  0.00     0.172 C 
BRANCH   5   6
HETATM    6  N   UNL     1      -0.366  -1.532   0.121  1.00  0.00    -0.281 N 
HETATM    7  C   UNL     1       0.701  -0.897  -0.439  1.00  0.00     0.136 A 
HETATM    8  C   UNL     1       0.702   0.339   0.168  1.00  0.00     0.065 A 
HETATM    9  C   UNL     1       1.656   1.455   0.041  1.00  0.00     0.073 C 
HETATM   10  N   UNL     1      -0.365   0.420   1.024  1.00  0.00    -0.164 NA
HETATM   11  N   UNL     1      -1.016  -0.734   0.984  1.00  0.00     0.004 NA
ENDBRANCH   5   6
ENDBRANCH   4   5
ENDBRANCH   3   4
ENDBRANCH   2   3
ENDBRANCH   1   2
BRANCH   1  12
HETATM   12  O   UNL     1       2.628  -7.556  -0.360  1.00  0.00    -0.274 OA
BRANCH  12  13
HETATM   13  N   UNL     1       2.975  -7.683  -1.712  1.00  0.00    -0.210 N 
HETATM   14  C   UNL     1       4.256  -7.495  -2.161  1.00  0.00     0.385 C 
HETATM   15  O   UNL     1       4.536  -7.723  -3.339  1.00  0.00    -0.236 OA
HETATM   16  H   UNL     1       2.389  -8.285  -2.282  1.00  0.00     0.200 HD
BRANCH  14  17
HETATM   17  O   UNL     1       5.180  -6.956  -1.308  1.00  0.00    -0.292 OA
BRANCH  17  18
HETATM   18  C   UNL     1       5.696  -7.539   0.000  1.00  0.00     0.061 A 
HETATM   19  C   UNL     1       6.696  -7.539   0.000  1.00  0.00     0.046 A 
HETATM   20  C   UNL     1       5.696  -8.539   0.000  1.00  0.00     0.046 A 
HETATM   21  C   UNL     1       4.976  -6.644   1.079  1.00  0.00     0.046 C 
ENDBRANCH  17  18
ENDBRANCH  14  17
ENDBRANCH  12  13
ENDBRANCH   1  12
TORSDOF 9
