REMARK  5 active torsions:
REMARK  status: ('A' for Active; 'I' for Inactive)
REMARK    1  A    between atoms: C_7  and  O_8 
REMARK    2  A    between atoms: O_8  and  C_9 
REMARK    3  A    between atoms: C_9  and  C_10 
REMARK    4  A    between atoms: C_9  and  C_12 
REMARK    5  A    between atoms: C_10  and  O_11 
ROOT
HETATM    1  C   UNL     1      -1.429   0.466   0.272  1.00  0.00     0.188 C 
ENDROOT
BRANCH   1   2
HETATM    2  O   UNL     1      -2.627  -0.295   0.426  1.00  0.00    -0.335 OA
BRANCH   2   3
HETATM    3  C   UNL     1      -3.855   0.320   0.363  1.00  0.00     0.120 C 
HETATM    4  C   UNL     1      -4.913  -0.400  -0.366  1.00  0.00     0.226 C 
HETATM    5  O   UNL     1      -4.474  -1.303  -1.132  1.00  0.00    -0.283 OA
HETATM    6  C   UNL     1      -6.178  -0.012  -0.120  1.00  0.00     0.192 C 
HETATM    7  O   UNL     1      -6.571   1.054   0.647  1.00  0.00    -0.355 OA
HETATM    8  C   UNL     1      -5.547   2.031   0.871  1.00  0.00     0.205 C 
HETATM    9  C   UNL     1      -4.152   1.496   0.936  1.00  0.00     0.040 C 
ENDBRANCH   2   3
ENDBRANCH   1   2
BRANCH   1  10
HETATM   10  C   UNL     1      -1.431   1.318  -1.018  1.00  0.00     0.201 C 
BRANCH  10  11
HETATM   11  O   UNL     1      -1.740   0.554  -2.184  1.00  0.00    -0.398 OA
HETATM   12  H   UNL     1      -2.538   0.009  -1.948  1.00  0.00     0.209 HD
ENDBRANCH  10  11
ENDBRANCH   1  10
BRANCH   1  13
HETATM   13  C   UNL     1      -0.268  -0.521   0.249  1.00  0.00     0.009 A 
HETATM   14  C   UNL     1       1.020  -0.217   0.692  1.00  0.00     0.111 A 
HETATM   15  N   UNL     1       2.061  -1.090   0.648  1.00  0.00    -0.253 NA
HETATM   16 BR   UNL     1       1.452   1.497   1.411  1.00  0.00    -0.029 Br
HETATM   17  C   UNL     1       1.819  -2.315   0.134  1.00  0.00     0.118 A 
HETATM   18  C   UNL     1       0.590  -2.719  -0.342  1.00  0.00     0.020 A 
HETATM   19  C   UNL     1      -0.458  -1.810  -0.285  1.00  0.00     0.014 A 
ENDBRANCH   1  13
TORSDOF 5
