REMARK  2 active torsions:
REMARK  status: ('A' for Active; 'I' for Inactive)
REMARK    1  A    between atoms: C_2  and  C_3 
REMARK    2  A    between atoms: C_13  and  O_15 
ROOT
HETATM    1  C   UNL     1      -2.732   0.000   0.000  1.00  0.00     0.078 A 
HETATM    2  C   UNL     1      -2.732   1.000   0.000  1.00  0.00     0.041 A 
HETATM    3  O   UNL     1      -3.732   1.000   0.000  1.00  0.00     0.000 OA
HETATM    4  C   UNL     1      -2.732   2.000   0.000  1.00  0.00     0.012 A 
HETATM    5  C   UNL     1      -3.598   2.500   0.000  1.00  0.00    -0.004 A 
HETATM    6  C   UNL     1      -3.598   3.500   0.000  1.00  0.00     0.010 A 
HETATM    7  C   UNL     1      -1.732   1.000   0.000  1.00  0.00     0.070 A 
HETATM    8  C   UNL     1      -1.732   2.000   0.000  1.00  0.00     0.100 A 
HETATM    9  S   UNL     1      -0.732   1.000   0.000  1.00  0.00    -0.211 SA
HETATM   10  C   UNL     1       0.670   2.374  -0.008  1.00  0.00     0.079 C 
HETATM   11  C   UNL     1      -1.732   0.000   0.000  1.00  0.00     0.173 A 
HETATM   12  O   UNL     1      -1.524  -0.766   1.235  1.00  0.00    -0.201 OA
HETATM   13  H   UNL     1      -4.242   0.825   0.857  1.00  0.00     0.000 HD
ENDROOT
BRANCH   1  14
HETATM   14  C   UNL     1      -4.272  -1.052   0.455  1.00  0.00     0.002 C 
HETATM   15  C   UNL     1      -5.558  -0.728  -0.343  1.00  0.00     0.005 C 
ENDBRANCH   1  14
BRANCH  11  16
HETATM   16  O   UNL     1      -0.792  -0.969  -1.069  1.00  0.00    -0.360 OA
HETATM   17  C   UNL     1       0.605  -1.277  -0.488  1.00  0.00     0.205 C 
ENDBRANCH  11  16
TORSDOF 2
