REMARK  7 active torsions:
REMARK  status: ('A' for Active; 'I' for Inactive)
REMARK    1  A    between atoms: C_2  and  C_5 
REMARK    2  A    between atoms: C_5  and  C_7 
REMARK    3  A    between atoms: C_7  and  O_8 
REMARK    4  A    between atoms: C_7  and  C_16 
REMARK    5  A    between atoms: O_8  and  C_9 
REMARK    6  A    between atoms: C_16  and  O_17 
REMARK    7  A    between atoms: C_16  and  C_18 
ROOT
HETATM    1  C   UNL     1      -3.037  -0.201   1.061  1.00  0.00     0.232 C 
ENDROOT
BRANCH   1   2
HETATM    2  C   UNL     1      -2.587   1.266   1.160  1.00  0.00     0.166 C 
HETATM    3  O   UNL     1      -2.936   1.874   2.187  1.00  0.00    -0.294 OA
BRANCH   2   4
HETATM    4  C   UNL     1      -1.732   2.000   0.000  1.00  0.00     0.012 A 
HETATM    5  C   UNL     1      -1.732   3.000   0.000  1.00  0.00     0.022 A 
HETATM    6  C   UNL     1      -0.732   2.000   0.000  1.00  0.00     0.022 A 
HETATM    7  C   UNL     1      -2.141   1.297  -1.380  1.00  0.00     0.022 C 
ENDBRANCH   2   4
ENDBRANCH   1   2
BRANCH   1   8
HETATM    8  O   UNL     1      -3.910  -0.408  -0.065  1.00  0.00    -0.330 OA
BRANCH   8   9
HETATM    9  C   UNL     1      -5.185   0.107   0.097  1.00  0.00     0.137 C 
HETATM   10  C   UNL     1      -6.281  -0.794   0.547  1.00  0.00     0.186 C 
HETATM   11  C   UNL     1      -7.696  -0.318   0.328  1.00  0.00     0.112 C 
HETATM   12  O   UNL     1      -6.017  -1.912   0.996  1.00  0.00    -0.290 OA
HETATM   13  C   UNL     1      -7.736   1.185   0.500  1.00  0.00     0.182 C 
HETATM   14  O   UNL     1      -6.824   1.850  -0.367  1.00  0.00    -0.360 OA
HETATM   15  C   UNL     1      -5.562   1.312  -0.365  1.00  0.00     0.175 C 
ENDBRANCH   8   9
ENDBRANCH   1   8
BRANCH   1  16
HETATM   16  C   UNL     1      -1.886  -1.252   1.046  1.00  0.00     0.188 C 
BRANCH  16  17
HETATM   17  O   UNL     1      -2.229  -2.363   1.885  1.00  0.00    -0.388 OA
HETATM   18  H   UNL     1      -3.100  -2.691   1.595  1.00  0.00     0.210 HD
ENDBRANCH  16  17
BRANCH  16  19
HETATM   19  C   UNL     1      -0.503  -0.810   1.489  1.00  0.00    -0.027 A 
HETATM   20  C   UNL     1       0.605  -1.073   0.663  1.00  0.00     0.011 A 
HETATM   21  C   UNL     1       1.865  -0.545   0.963  1.00  0.00     0.024 A 
HETATM   22  C   UNL     1       2.033   0.241   2.099  1.00  0.00     0.034 A 
HETATM   23  C   UNL     1       0.968   0.451   2.971  1.00  0.00     0.024 A 
HETATM   24 CL   UNL     1       3.551   0.993   2.400  1.00  0.00    -0.084 Cl
HETATM   25  C   UNL     1      -0.288  -0.100   2.684  1.00  0.00     0.011 A 
ENDBRANCH  16  19
ENDBRANCH   1  16
TORSDOF 7
