REMARK  2 active torsions:
REMARK  status: ('A' for Active; 'I' for Inactive)
REMARK    1  A    between atoms: C_4  and  C_5 
REMARK    2  A    between atoms: C_5  and  O_6 
ROOT
HETATM    1  C   UNL     1      -3.482  -0.722  -0.563  1.00  0.00     0.155 C 
HETATM    2  C   UNL     1      -4.216  -1.390   0.610  1.00  0.00     0.078 C 
HETATM    3  C   UNL     1      -5.697  -1.108   0.504  1.00  0.00     0.178 C 
HETATM    4  O   UNL     1      -5.962   0.293   0.590  1.00  0.00    -0.359 OA
HETATM    5  C   UNL     1      -5.266   1.003  -0.353  1.00  0.00     0.188 C 
HETATM    6  C   UNL     1      -4.153   0.609  -1.008  1.00  0.00     0.209 C 
HETATM    7  O   UNL     1      -3.591   1.157  -2.005  1.00  0.00    -0.287 OA
ENDROOT
BRANCH   1   8
HETATM    8  C   UNL     1      -2.015  -0.602  -0.191  1.00  0.00     0.020 C 
HETATM    9  C   UNL     1      -1.044  -1.577  -0.332  1.00  0.00     0.123 C 
HETATM   10  N   UNL     1       0.129  -0.998   0.026  1.00  0.00    -0.285 N 
HETATM   11  C   UNL     1       1.439  -1.543  -0.225  1.00  0.00     0.179 C 
HETATM   12  N   UNL     1      -0.005   0.234   0.547  1.00  0.00    -0.185 NA
HETATM   13  C   UNL     1      -1.307   0.496   0.357  1.00  0.00     0.150 C 
ENDBRANCH   1   8
BRANCH   1  14
HETATM   14  O   UNL     1      -3.596  -1.599  -1.705  1.00  0.00    -0.377 OA
HETATM   15  H   UNL     1      -3.485  -0.926  -2.418  1.00  0.00     0.211 HD
ENDBRANCH   1  14
TORSDOF 2
