REMARK  2 active torsions:
REMARK  status: ('A' for Active; 'I' for Inactive)
REMARK    1  A    between atoms: S_2  and  C_3 
REMARK    2  A    between atoms: C_3  and  C_5 
ROOT
HETATM    1  C   UNL     1       2.000   0.000   0.000  1.00  0.00     0.071 A 
HETATM    2  C   UNL     1       2.000  -1.000   0.000  1.00  0.00     0.091 A 
HETATM    3  C   UNL     1       2.573   0.782   1.248  1.00  0.00     0.031 C 
HETATM    4  C   UNL     1       1.000   0.000   0.000  1.00  0.00     0.049 A 
HETATM    5  N   UNL     1       0.000   0.000   0.000  1.00  0.00    -0.158 N 
ENDROOT
BRANCH   1   6
HETATM    6  C   UNL     1       2.554   0.670  -1.327  1.00  0.00     0.199 C 
HETATM    7  O   UNL     1       2.199   0.324  -2.455  1.00  0.00    -0.284 OA
BRANCH   6   8
HETATM    8  S   UNL     1       3.831   1.906  -1.237  1.00  0.00    -0.096 SA
HETATM    9  C   UNL     1       5.265   0.827  -1.020  1.00  0.00     0.098 C 
ENDBRANCH   6   8
ENDBRANCH   1   6
TORSDOF 2
