REMARK  3 active torsions:
REMARK  status: ('A' for Active; 'I' for Inactive)
REMARK    1  A    between atoms: O_2  and  C_3 
REMARK    2  A    between atoms: C_7  and  O_8 
REMARK    3  A    between atoms: O_8  and  C_9 
ROOT
HETATM    1  C   UNL     1       0.515  -0.714   0.058  1.00  0.00     0.088 A 
HETATM    2  C   UNL     1       0.428  -2.100   0.069  1.00  0.00     0.153 A 
HETATM    3  N   UNL     1      -0.737  -2.790   0.029  1.00  0.00    -0.268 NA
HETATM    4  C   UNL     1      -1.882  -2.064  -0.016  1.00  0.00     0.153 A 
HETATM    5  C   UNL     1      -1.898  -0.679  -0.007  1.00  0.00     0.098 A 
HETATM    6  C   UNL     1      -0.681   0.000   0.033  1.00  0.00     0.077 A 
ENDROOT
BRANCH   5   7
HETATM    7  O   UNL     1      -3.042   0.142  -0.062  1.00  0.00    -0.284 OA
BRANCH   7   8
HETATM    8  C   UNL     1      -4.348  -0.324   0.016  1.00  0.00     0.403 C 
HETATM    9  O   UNL     1      -4.731  -1.473   0.152  1.00  0.00    -0.276 OA
ENDBRANCH   7   8
ENDBRANCH   5   7
BRANCH   1  10
HETATM   10  O   UNL     1       1.649   0.044   0.063  1.00  0.00    -0.354 OA
HETATM   11  C   UNL     1       2.883  -0.649  -0.084  1.00  0.00     0.210 C 
ENDBRANCH   1  10
TORSDOF 3
