REMARK  3 active torsions:
REMARK  status: ('A' for Active; 'I' for Inactive)
REMARK    1  A    between atoms: C_7  and  C_8 
REMARK    2  A    between atoms: C_8  and  O_10 
REMARK    3  A    between atoms: O_10  and  C_11 
ROOT
HETATM    1  C   UNL     1       2.185   0.058   0.505  1.00  0.00     0.300 C 
HETATM    2  O   UNL     1       3.031   0.725   1.095  1.00  0.00    -0.259 OA
ENDROOT
BRANCH   1   3
HETATM    3  C   UNL     1       2.234  -1.422   0.612  1.00  0.00     0.063 A 
HETATM    4  C   UNL     1       3.340  -2.153   0.142  1.00  0.00    -0.043 A 
HETATM    5  C   UNL     1       4.608  -1.518  -0.354  1.00  0.00     0.049 C 
HETATM    6  C   UNL     1       3.234  -3.550   0.098  1.00  0.00     0.027 A 
HETATM    7  C   UNL     1       2.087  -4.156   0.586  1.00  0.00     0.116 A 
HETATM    8  N   UNL     1       1.065  -3.483   1.149  1.00  0.00    -0.272 NA
HETATM    9  C   UNL     1       1.163  -2.125   1.154  1.00  0.00     0.134 A 
ENDBRANCH   1   3
BRANCH   1  10
HETATM   10  O   UNL     1       1.437   0.527  -0.550  1.00  0.00    -0.269 OA
BRANCH  10  11
HETATM   11  C   UNL     1       0.140  -0.019  -0.731  1.00  0.00     0.150 C 
HETATM   12  C   UNL     1      -0.936   0.400   0.175  1.00  0.00     0.205 C 
HETATM   13  C   UNL     1      -2.067  -0.319   0.093  1.00  0.00     0.057 C 
HETATM   14  O   UNL     1      -0.652   1.366   0.926  1.00  0.00    -0.286 OA
HETATM   15  C   UNL     1      -2.233  -1.487  -0.826  1.00  0.00     0.206 C 
HETATM   16  O   UNL     1      -1.273  -1.599  -1.894  1.00  0.00    -0.356 OA
HETATM   17  C   UNL     1      -0.095  -0.922  -1.698  1.00  0.00     0.176 C 
ENDBRANCH  10  11
ENDBRANCH   1  10
TORSDOF 3
