REMARK  9 active torsions:
REMARK  status: ('A' for Active; 'I' for Inactive)
REMARK    1  A    between atoms: O_2  and  C_3 
REMARK    2  A    between atoms: C_3  and  C_5 
REMARK    3  A    between atoms: C_5  and  C_6 
REMARK    4  A    between atoms: N_8  and  C_9 
REMARK    5  A    between atoms: C_9  and  C_10 
REMARK    6  A    between atoms: C_10  and  C_11 
REMARK    7  A    between atoms: C_11  and  O_12 
REMARK    8  A    between atoms: C_11  and  C_13 
REMARK    9  A    between atoms: C_13  and  S_14 
ROOT
HETATM    1  C   UNL     1       0.410  -0.148   0.367  1.00  0.00     0.078 C 
HETATM    2  C   UNL     1       0.104  -1.254  -0.394  1.00  0.00     0.137 C 
HETATM    3  N   UNL     1      -0.965  -0.839  -1.132  1.00  0.00    -0.283 N 
HETATM    4  N   UNL     1      -1.176   0.479  -0.986  1.00  0.00     0.004 NA
HETATM    5  N   UNL     1      -0.360   0.908  -0.041  1.00  0.00    -0.163 NA
ENDROOT
BRANCH   3   6
HETATM    6  C   UNL     1      -2.025  -1.671  -1.654  1.00  0.00     0.148 C 
BRANCH   6   7
HETATM    7  C   UNL     1      -3.262  -1.619  -0.754  1.00  0.00     0.054 C 
BRANCH   7   8
HETATM    8  C   UNL     1      -3.026  -1.987   0.726  1.00  0.00     0.126 C 
BRANCH   8   9
HETATM    9  O   UNL     1      -4.298  -1.969   1.389  1.00  0.00    -0.395 OA
HETATM   10  H   UNL     1      -4.607  -1.044   1.398  1.00  0.00     0.210 HD
ENDBRANCH   8   9
BRANCH   8  11
HETATM   11  C   UNL     1      -2.345  -3.343   1.026  1.00  0.00     0.071 C 
BRANCH  11  12
HETATM   12  S   UNL     1      -2.851  -4.775   0.000  1.00  0.00    -0.292 SA
HETATM   13  C   UNL     1      -3.846  -4.670   0.000  1.00  0.00     0.248 C 
ENDBRANCH  11  12
ENDBRANCH   8  11
ENDBRANCH   7   8
ENDBRANCH   6   7
ENDBRANCH   3   6
BRANCH   1  14
HETATM   14  C   UNL     1       1.335  -0.010   1.511  1.00  0.00     0.173 C 
BRANCH  14  15
HETATM   15  C   UNL     1       2.396   1.040   1.268  1.00  0.00     0.264 C 
HETATM   16  O   UNL     1       2.805   1.801   2.138  1.00  0.00    -0.265 OA
BRANCH  15  17
HETATM   17  O   UNL     1       2.919   1.008   0.000  1.00  0.00    -0.326 OA
HETATM   18  C   UNL     1       3.662   0.339   0.000  1.00  0.00     0.213 C 
ENDBRANCH  15  17
ENDBRANCH  14  15
ENDBRANCH   1  14
TORSDOF 9
