REMARK  3 active torsions:
REMARK  status: ('A' for Active; 'I' for Inactive)
REMARK    1  A    between atoms: C_3  and  S_4 
REMARK    2  A    between atoms: S_4  and  C_5 
REMARK    3  A    between atoms: C_9  and  C_10 
ROOT
HETATM    1  C   UNL     1       0.857   1.996   0.117  1.00  0.00     0.160 C 
HETATM    2  N   UNL     1       1.854   0.966  -0.017  1.00  0.00    -0.311 N 
HETATM    3  C   UNL     1       3.213   1.163  -0.096  1.00  0.00     0.198 A 
HETATM    4  N   UNL     1       3.822   0.011  -0.197  1.00  0.00    -0.122 NA
HETATM    5  N   UNL     1       2.870  -0.961  -0.190  1.00  0.00    -0.128 NA
HETATM    6  C   UNL     1       1.667  -0.407  -0.091  1.00  0.00     0.164 A 
ENDROOT
BRANCH   6   7
HETATM    7  C   UNL     1       0.436  -1.224  -0.058  1.00  0.00     0.015 A 
HETATM    8  C   UNL     1      -0.871  -0.737  -0.091  1.00  0.00     0.034 A 
HETATM    9  C   UNL     1      -1.928  -1.640  -0.037  1.00  0.00     0.117 A 
HETATM   10  N   UNL     1      -1.782  -2.977   0.025  1.00  0.00    -0.273 NA
HETATM   11  C   UNL     1      -0.520  -3.441   0.031  1.00  0.00     0.117 A 
HETATM   12  C   UNL     1       0.594  -2.619  -0.004  1.00  0.00     0.034 A 
ENDBRANCH   6   7
BRANCH   3  13
HETATM   13  S   UNL     1       3.981   2.709  -0.081  1.00  0.00    -0.021 SA
BRANCH  13  14
HETATM   14  C   UNL     1       5.664   2.205  -0.021  1.00  0.00     0.312 C 
HETATM   15  O   UNL     1       6.564   3.041   0.032  1.00  0.00    -0.295 OA
ENDBRANCH  13  14
ENDBRANCH   3  13
TORSDOF 3
