REMARK  2 active torsions:
REMARK  status: ('A' for Active; 'I' for Inactive)
REMARK    1  A    between atoms: S_2  and  C_3 
REMARK    2  A    between atoms: C_3  and  C_6 
ROOT
HETATM    1  C   UNL     1       1.557  -1.777  -0.025  1.00  0.00     0.329 C 
HETATM    2  F   UNL     1       2.476  -2.479   0.697  1.00  0.00    -0.190 F 
HETATM    3  F   UNL     1       1.667  -2.222  -1.309  1.00  0.00    -0.190 F 
ENDROOT
BRANCH   1   4
HETATM    4  S   UNL     1       2.000   0.000   0.000  1.00  0.00    -0.224 SA
HETATM    5  C   UNL     1       3.000   0.000   0.000  1.00  0.00     0.265 C 
ENDBRANCH   1   4
BRANCH   1   6
HETATM    6  C   UNL     1       0.136  -2.064   0.512  1.00  0.00     0.311 C 
HETATM    7  C   UNL     1      -0.984  -1.402  -0.271  1.00  0.00     0.098 C 
HETATM    8  F   UNL     1      -0.097  -3.411   0.508  1.00  0.00    -0.199 F 
HETATM    9  F   UNL     1       0.030  -1.677   1.816  1.00  0.00    -0.199 F 
ENDBRANCH   1   6
TORSDOF 2
