REMARK  3 active torsions:
REMARK  status: ('A' for Active; 'I' for Inactive)
REMARK    1  A    between atoms: N_1  and  C_2 
REMARK    2  A    between atoms: C_5  and  O_6 
REMARK    3  A    between atoms: O_6  and  C_7 
ROOT
HETATM    1  C   UNL     1       1.218  -0.280   0.205  1.00  0.00     0.218 C 
HETATM    2  C   UNL     1       1.051  -1.720  -0.290  1.00  0.00     0.038 C 
HETATM    3  C   UNL     1      -0.250  -2.335   0.217  1.00  0.00     0.034 C 
HETATM    4  C   UNL     1      -1.459  -1.489  -0.187  1.00  0.00     0.131 C 
HETATM    5  C   UNL     1      -1.308  -0.057   0.334  1.00  0.00     0.034 C 
HETATM    6  C   UNL     1      -0.004   0.583  -0.133  1.00  0.00     0.038 C 
ENDROOT
BRANCH   1   7
HETATM    7  N   UNL     1       2.412   0.307  -0.398  1.00  0.00     0.082 N 
HETATM    8  H   UNL     1       3.236  -0.235  -0.140  1.00  0.00     0.313 HD
HETATM    9  H   UNL     1       2.559   1.249  -0.036  1.00  0.00     0.313 HD
ENDBRANCH   1   7
BRANCH   4  10
HETATM   10  O   UNL     1      -2.627  -2.102   0.392  1.00  0.00    -0.323 OA
BRANCH  10  11
HETATM   11  C   UNL     1      -3.806  -1.818  -0.216  1.00  0.00     0.398 C 
HETATM   12  O   UNL     1      -3.977  -1.099  -1.186  1.00  0.00    -0.276 OA
ENDBRANCH  10  11
ENDBRANCH   4  10
TORSDOF 3
