REMARK  6 active torsions:
REMARK  status: ('A' for Active; 'I' for Inactive)
REMARK    1  A    between atoms: C_2  and  C_3 
REMARK    2  A    between atoms: C_2  and  O_7 
REMARK    3  A    between atoms: C_3  and  S_4 
REMARK    4  A    between atoms: S_4  and  C_5 
REMARK    5  A    between atoms: O_7  and  C_8 
REMARK    6  A    between atoms: C_8  and  C_9 
ROOT
HETATM    1  C   UNL     1       1.596  -0.708   0.828  1.00  0.00     0.174 C 
ENDROOT
BRANCH   1   2
HETATM    2  O   UNL     1       1.689   0.697   1.004  1.00  0.00    -0.385 OA
BRANCH   2   3
HETATM    3  C   UNL     1       2.372   1.476   0.022  1.00  0.00     0.127 C 
HETATM    4  C   UNL     1       3.769   0.943  -0.307  1.00  0.00     0.040 C 
BRANCH   3   5
HETATM    5  C   UNL     1       2.507   2.903   0.599  1.00  0.00     0.113 C 
BRANCH   5   6
HETATM    6  S   UNL     1       0.957   3.693   1.151  1.00  0.00    -0.099 SA
BRANCH   6   7
HETATM    7  C   UNL     1       0.018   3.596  -0.318  1.00  0.00     0.304 C 
HETATM    8  O   UNL     1      -0.591   4.568  -0.755  1.00  0.00    -0.295 OA
ENDBRANCH   6   7
ENDBRANCH   5   6
ENDBRANCH   3   5
ENDBRANCH   2   3
ENDBRANCH   1   2
BRANCH   1   9
HETATM    9  C   UNL     1       0.396  -1.187  -0.006  1.00  0.00     0.037 C 
HETATM   10  C   UNL     1       0.223  -2.702   0.228  1.00  0.00     0.010 C 
HETATM   11  C   UNL     1      -1.077  -3.247  -0.351  1.00  0.00     0.030 C 
HETATM   12  C   UNL     1      -2.271  -2.388   0.049  1.00  0.00     0.269 C 
HETATM   13  N   UNL     1      -2.059  -0.999  -0.357  1.00  0.00     0.083 N 
HETATM   14  C   UNL     1      -0.895  -0.427   0.328  1.00  0.00     0.276 C 
HETATM   15  H   UNL     1      -2.889  -0.454  -0.121  1.00  0.00     0.315 HD
ENDBRANCH   1   9
TORSDOF 6
