REMARK  4 active torsions:
REMARK  status: ('A' for Active; 'I' for Inactive)
REMARK    1  A    between atoms: S_2  and  C_3 
REMARK    2  A    between atoms: C_3  and  C_5 
REMARK    3  A    between atoms: C_5  and  C_6 
REMARK    4  A    between atoms: C_6  and  N_7 
ROOT
HETATM    1  C   UNL     1       1.382  -3.146   0.273  1.00  0.00     0.121 C 
ENDROOT
BRANCH   1   2
HETATM    2  C   UNL     1       2.718  -3.826   0.049  1.00  0.00     0.187 C 
HETATM    3  O   UNL     1       3.762  -3.199  -0.083  1.00  0.00    -0.285 OA
BRANCH   2   4
HETATM    4  S   UNL     1       2.773  -5.587  -0.095  1.00  0.00    -0.097 SA
HETATM    5  C   UNL     1       1.096  -6.123   0.244  1.00  0.00     0.098 C 
ENDBRANCH   2   4
ENDBRANCH   1   2
BRANCH   1   6
HETATM    6  C   UNL     1       1.612  -1.688   0.662  1.00  0.00     0.281 C 
BRANCH   6   7
HETATM    7  N   UNL     1       0.448  -0.899   1.103  1.00  0.00     0.097 N 
HETATM    8  C   UNL     1       0.000   0.000   0.000  1.00  0.00     0.247 A 
HETATM    9  C   UNL     1      -0.880  -1.102   0.555  1.00  0.00     0.308 A 
HETATM   10  C   UNL     1       0.000   1.000   0.000  1.00  0.00     0.045 C 
ENDBRANCH   6   7
ENDBRANCH   1   6
TORSDOF 4
