REMARK  3 active torsions:
REMARK  status: ('A' for Active; 'I' for Inactive)
REMARK    1  A    between atoms: C_4  and  C_5 
REMARK    2  A    between atoms: C_5  and  O_7 
REMARK    3  A    between atoms: O_7  and  C_8 
ROOT
HETATM    1  C   UNL     1      -0.291   3.590  -0.174  1.00  0.00     0.336 C 
HETATM    2  O   UNL     1       0.820   4.109  -0.188  1.00  0.00    -0.255 OA
ENDROOT
BRANCH   1   3
HETATM    3  C   UNL     1      -0.359   2.081  -0.107  1.00  0.00     0.228 A 
HETATM    4  N   UNL     1      -1.313   1.366   0.411  1.00  0.00    -0.144 NA
HETATM    5  N   UNL     1      -0.934   0.073   0.122  1.00  0.00    -0.222 N 
HETATM    6  C   UNL     1      -1.779  -1.059   0.381  1.00  0.00     0.185 C 
HETATM    7  C   UNL     1       0.294   0.057  -0.546  1.00  0.00     0.344 A 
HETATM    8  N   UNL     1       0.652   1.367  -0.663  1.00  0.00    -0.285 N 
HETATM    9  O   UNL     1       0.910  -0.901  -0.976  1.00  0.00    -0.245 OA
HETATM   10  H   UNL     1       1.496   1.713  -1.090  1.00  0.00     0.172 HD
ENDBRANCH   1   3
BRANCH   1  11
HETATM   11  O   UNL     1      -1.440   4.289  -0.265  1.00  0.00    -0.267 OA
BRANCH  11  12
HETATM   12  C   UNL     1      -2.745   3.767  -0.416  1.00  0.00     0.147 C 
HETATM   13  C   UNL     1      -3.828   4.381   0.403  1.00  0.00     0.187 C 
HETATM   14  C   UNL     1      -5.237   3.926   0.128  1.00  0.00     0.112 C 
HETATM   15  O   UNL     1      -3.579   5.271   1.213  1.00  0.00    -0.290 OA
HETATM   16  C   UNL     1      -5.178   2.471  -0.283  1.00  0.00     0.182 C 
HETATM   17  O   UNL     1      -4.369   2.299  -1.455  1.00  0.00    -0.360 OA
HETATM   18  C   UNL     1      -3.119   2.857  -1.330  1.00  0.00     0.175 C 
ENDBRANCH  11  12
ENDBRANCH   1  11
TORSDOF 3
