REMARK  4 active torsions:
REMARK  status: ('A' for Active; 'I' for Inactive)
REMARK    1  A    between atoms: C_2  and  N_3 
REMARK    2  A    between atoms: N_3  and  C_4 
REMARK       I    between atoms: N_3  and  C_6 
REMARK    3  A    between atoms: C_6  and  C_8 
REMARK    4  A    between atoms: C_10  and  N_11 
ROOT
HETATM    1  C   UNL     1      -0.302   0.045  -0.553  1.00  0.00     0.313 C 
HETATM    2  C   UNL     1      -1.583   0.309   0.219  1.00  0.00     0.074 C 
HETATM    3  C   UNL     1      -1.720   1.828   0.291  1.00  0.00     0.136 C 
HETATM    4  C   UNL     1      -0.728   2.345  -0.734  1.00  0.00     0.297 C 
HETATM    5  N   UNL     1       0.365   1.362  -0.712  1.00  0.00     0.099 N 
HETATM    6  H   UNL     1       0.955   1.501   0.121  1.00  0.00     0.317 HD
ENDROOT
BRANCH   1   7
HETATM    7  C   UNL     1       0.590  -0.950   0.204  1.00  0.00     0.253 C 
HETATM    8  N   UNL     1       0.300  -2.310   0.087  1.00  0.00    -0.351 N 
HETATM    9  O   UNL     1       1.510  -0.536   0.917  1.00  0.00    -0.271 OA
BRANCH   8  10
HETATM   10  C   UNL     1      -0.845  -2.886  -0.637  1.00  0.00     0.121 C 
HETATM   11  C   UNL     1      -2.117  -2.925   0.205  1.00  0.00     0.026 C 
ENDBRANCH   8  10
BRANCH   8  12
HETATM   12  C   UNL     1       1.260  -3.254   0.662  1.00  0.00     0.121 C 
HETATM   13  C   UNL     1       2.517  -3.337  -0.194  1.00  0.00     0.026 C 
ENDBRANCH   8  12
ENDBRANCH   1   7
BRANCH   3  14
HETATM   14  N   UNL     1      -3.085   2.273   0.123  1.00  0.00    -0.277 N 
HETATM   15  N   UNL     1      -3.660   3.006   1.095  1.00  0.00     0.005 NA
HETATM   16  N   UNL     1      -4.970   2.818   1.014  1.00  0.00    -0.164 NA
HETATM   17  C   UNL     1      -5.217   1.996  -0.053  1.00  0.00     0.065 C 
HETATM   18  C   UNL     1      -4.037   1.750  -0.712  1.00  0.00     0.136 C 
HETATM   19  C   UNL     1      -6.559   1.432  -0.285  1.00  0.00     0.073 C 
ENDBRANCH   3  14
TORSDOF 4
