REMARK  4 active torsions:
REMARK  status: ('A' for Active; 'I' for Inactive)
REMARK    1  A    between atoms: C_2  and  S_4 
REMARK    2  A    between atoms: C_2  and  C_5 
REMARK    3  A    between atoms: C_5  and  O_7 
REMARK    4  A    between atoms: O_7  and  C_8 
ROOT
HETATM    1  O   UNL     1       1.794   0.896   0.712  1.00  0.00    -0.274 OA
ENDROOT
BRANCH   1   2
HETATM    2  C   UNL     1       2.877   0.059   0.381  1.00  0.00     0.282 C 
HETATM    3  O   UNL     1       4.026   0.486   0.523  1.00  0.00    -0.263 OA
BRANCH   2   4
HETATM    4  C   UNL     1       2.598  -1.500   0.000  1.00  0.00     0.086 C 
HETATM    5  C   UNL     1       3.306  -2.250   1.166  1.00  0.00     0.037 C 
HETATM    6  C   UNL     1       1.598  -1.500   0.000  1.00  0.00     0.037 C 
BRANCH   4   7
HETATM    7  S   UNL     1       3.629  -1.909  -1.516  1.00  0.00    -0.163 SA
HETATM    8  H   UNL     1       2.852  -2.902  -1.965  1.00  0.00     0.102 HD
ENDBRANCH   4   7
ENDBRANCH   2   4
ENDBRANCH   1   2
BRANCH   1   9
HETATM    9  C   UNL     1       0.325   0.820   0.622  1.00  0.00     0.129 C 
HETATM   10  C   UNL     1      -0.373   1.486  -0.493  1.00  0.00     0.227 C 
HETATM   11  C   UNL     1      -1.718   1.496  -0.461  1.00  0.00     0.192 C 
HETATM   12  O   UNL     1       0.411   2.000  -1.335  1.00  0.00    -0.283 OA
HETATM   13  O   UNL     1      -2.527   0.865   0.456  1.00  0.00    -0.355 OA
HETATM   14  C   UNL     1      -1.861  -0.173   1.177  1.00  0.00     0.205 C 
HETATM   15  C   UNL     1      -0.412   0.090   1.484  1.00  0.00     0.041 C 
ENDBRANCH   1   9
TORSDOF 4
