REMARK  16 active torsions:
REMARK  status: ('A' for Active; 'I' for Inactive)
REMARK    1  A    between atoms: C_2  and  C_4 
REMARK    2  A    between atoms: C_4  and  C_5 
REMARK    3  A    between atoms: C_5  and  C_7 
REMARK    4  A    between atoms: C_7  and  O_8 
REMARK    5  A    between atoms: C_7  and  C_23 
REMARK    6  A    between atoms: O_8  and  C_9 
REMARK    7  A    between atoms: C_9  and  N_11 
REMARK    8  A    between atoms: N_11  and  C_12 
REMARK    9  A    between atoms: C_12  and  C_13 
REMARK   10  A    between atoms: N_18  and  O_19 
REMARK   11  A    between atoms: C_23  and  C_25 
REMARK   12  A    between atoms: C_25  and  C_26 
REMARK   13  A    between atoms: C_25  and  C_29 
REMARK   14  A    between atoms: C_26  and  C_27 
REMARK   15  A    between atoms: C_27  and  O_28 
REMARK   16  A    between atoms: C_29  and  C_31 
ROOT
HETATM    1  C   UNL     1       2.694  -1.874   1.427  1.00  0.00     0.271 C 
ENDROOT
BRANCH   1   2
HETATM    2  C   UNL     1       2.256  -3.025   0.480  1.00  0.00     0.170 C 
HETATM    3  O   UNL     1       1.219  -3.658   0.733  1.00  0.00    -0.294 OA
BRANCH   2   4
HETATM    4  C   UNL     1       3.036  -3.473  -0.736  1.00  0.00     0.159 C 
BRANCH   4   5
HETATM    5  C   UNL     1       3.813  -4.780  -0.573  1.00  0.00     0.130 C 
HETATM    6  C   UNL     1       3.117  -5.946   0.083  1.00  0.00     0.091 C 
HETATM    7  O   UNL     1       4.936  -4.915  -1.032  1.00  0.00    -0.298 OA
ENDBRANCH   4   5
ENDBRANCH   2   4
ENDBRANCH   1   2
BRANCH   1   8
HETATM    8  O   UNL     1       3.997  -1.749   1.994  1.00  0.00    -0.306 OA
BRANCH   8   9
HETATM    9  C   UNL     1       5.038  -2.401   1.465  1.00  0.00     0.211 C 
HETATM   10  S   UNL     1       5.722  -3.498   2.481  1.00  0.00    -0.033 SA
BRANCH   9  11
HETATM   11  N   UNL     1       5.320  -1.967   0.200  1.00  0.00    -0.361 N 
HETATM   12  H   UNL     1       4.859  -1.109  -0.048  1.00  0.00     0.162 HD
BRANCH  11  13
HETATM   13  C   UNL     1       6.473  -2.250  -0.677  1.00  0.00     0.129 C 
BRANCH  13  14
HETATM   14  C   UNL     1       7.663  -1.529  -0.136  1.00  0.00     0.030 C 
HETATM   15  C   UNL     1       8.121  -0.222  -0.797  1.00  0.00     0.035 C 
HETATM   16  C   UNL     1       9.305   0.152   0.148  1.00  0.00     0.032 C 
HETATM   17  C   UNL     1      10.583   0.682  -0.516  1.00  0.00     0.034 C 
HETATM   18  C   UNL     1       8.754   1.313   1.009  1.00  0.00     0.034 C 
HETATM   19  N   UNL     1       9.534  -1.151   0.889  1.00  0.00    -0.182 NA
HETATM   20  C   UNL     1       9.009  -2.258   0.035  1.00  0.00     0.037 C 
HETATM   21  C   UNL     1       8.860  -3.642   0.671  1.00  0.00     0.035 C 
HETATM   22  C   UNL     1       9.859  -2.516  -1.230  1.00  0.00     0.035 C 
BRANCH  19  23
HETATM   23  O   UNL     1      10.910  -1.394   1.229  1.00  0.00    -0.312 OA
HETATM   24  H   UNL     1      10.802  -1.973   2.010  1.00  0.00     0.237 HD
ENDBRANCH  19  23
ENDBRANCH  13  14
ENDBRANCH  11  13
ENDBRANCH   9  11
ENDBRANCH   8   9
ENDBRANCH   1   8
BRANCH   1  25
HETATM   25  C   UNL     1       2.235  -0.421   1.233  1.00  0.00     0.175 C 
HETATM   26  O   UNL     1       1.989   0.266   2.235  1.00  0.00    -0.294 OA
BRANCH  25  27
HETATM   27  C   UNL     1       2.345   0.266  -0.118  1.00  0.00     0.135 C 
BRANCH  27  28
HETATM   28  C   UNL     1       3.665   1.098  -0.179  1.00  0.00     0.046 C 
BRANCH  28  29
HETATM   29  C   UNL     1       3.731   2.577   0.198  1.00  0.00     0.165 C 
BRANCH  29  30
HETATM   30  O   UNL     1       3.187   3.420  -0.797  1.00  0.00    -0.401 OA
HETATM   31  H   UNL     1       2.213   3.247  -0.803  1.00  0.00     0.209 HD
ENDBRANCH  29  30
ENDBRANCH  28  29
ENDBRANCH  27  28
BRANCH  27  32
HETATM   32  C   UNL     1       1.037   0.974  -0.521  1.00  0.00     0.174 C 
HETATM   33  O   UNL     1       1.066   2.113  -0.981  1.00  0.00    -0.291 OA
BRANCH  32  34
HETATM   34  C   UNL     1      -0.240   0.147  -0.476  1.00  0.00     0.060 A 
HETATM   35  C   UNL     1      -1.482   0.671  -0.029  1.00  0.00     0.185 A 
HETATM   36  C   UNL     1      -2.527  -0.282   0.066  1.00  0.00     0.056 A 
HETATM   37  O   UNL     1      -1.699   1.884   0.298  1.00  0.00    -0.287 OA
HETATM   38  C   UNL     1      -2.378  -1.643  -0.222  1.00  0.00     0.004 A 
HETATM   39  C   UNL     1      -1.173  -2.104  -0.708  1.00  0.00     0.001 A 
HETATM   40  C   UNL     1      -0.127  -1.203  -0.873  1.00  0.00     0.019 A 
ENDBRANCH  32  34
ENDBRANCH  27  32
ENDBRANCH  25  27
ENDBRANCH   1  25
TORSDOF 16
