REMARK  2 active torsions:
REMARK  status: ('A' for Active; 'I' for Inactive)
REMARK    1  A    between atoms: N_4  and  C_5 
REMARK    2  A    between atoms: C_5  and  C_6 
ROOT
HETATM    1  C   UNL     1      -2.978   1.978  -0.394  1.00  0.00     0.208 C 
ENDROOT
BRANCH   1   2
HETATM    2  N   UNL     1      -1.916   1.051  -0.051  1.00  0.00    -0.277 N 
HETATM    3  C   UNL     1      -1.674  -0.192  -0.561  1.00  0.00     0.136 A 
HETATM    4  C   UNL     1      -0.597  -0.645   0.165  1.00  0.00     0.065 A 
HETATM    5  C   UNL     1       0.098  -1.946   0.121  1.00  0.00     0.073 C 
HETATM    6  N   UNL     1      -0.204   0.332   1.040  1.00  0.00    -0.164 NA
HETATM    7  N   UNL     1      -1.017   1.369   0.898  1.00  0.00     0.005 NA
ENDBRANCH   1   2
BRANCH   1   8
HETATM    8  C   UNL     1      -4.324   1.432  -0.073  1.00  0.00     0.094 A 
HETATM    9  N   UNL     1      -5.426   1.901  -0.687  1.00  0.00    -0.159 NA
HETATM   10  N   UNL     1      -6.396   1.169  -0.111  1.00  0.00    -0.197 N 
HETATM   11  N   UNL     1      -6.033   0.255   0.803  1.00  0.00    -0.168 NA
HETATM   12  H   UNL     1      -7.374   1.302  -0.359  1.00  0.00     0.212 HD
HETATM   13  C   UNL     1      -4.712   0.430   0.844  1.00  0.00     0.170 A 
ENDBRANCH   1   8
TORSDOF 2
