REMARK  6 active torsions:
REMARK  status: ('A' for Active; 'I' for Inactive)
REMARK    1  A    between atoms: C_2  and  S_3 
REMARK    2  A    between atoms: S_3  and  C_4 
REMARK    3  A    between atoms: C_4  and  C_5 
REMARK    4  A    between atoms: C_5  and  O_6 
REMARK    5  A    between atoms: C_5  and  C_7 
REMARK    6  A    between atoms: C_7  and  O_9 
ROOT
HETATM    1  C   UNL     1       0.697   1.860   0.255  1.00  0.00     0.225 C 
ENDROOT
BRANCH   1   2
HETATM    2  C   UNL     1       1.908   0.977  -0.046  1.00  0.00     0.124 C 
BRANCH   2   3
HETATM    3  S   UNL     1       3.466   1.769   0.494  1.00  0.00    -0.098 SA
BRANCH   3   4
HETATM    4  C   UNL     1       4.599   0.548  -0.057  1.00  0.00     0.304 C 
HETATM    5  O   UNL     1       4.251  -0.571  -0.411  1.00  0.00    -0.295 OA
ENDBRANCH   3   4
ENDBRANCH   2   3
ENDBRANCH   1   2
BRANCH   1   6
HETATM    6  O   UNL     1       0.758   3.058  -0.533  1.00  0.00    -0.384 OA
HETATM    7  H   UNL     1      -0.147   3.426  -0.556  1.00  0.00     0.210 HD
ENDBRANCH   1   6
BRANCH   1   8
HETATM    8  C   UNL     1      -0.606   1.127  -0.055  1.00  0.00     0.170 C 
HETATM    9  O   UNL     1      -1.568   1.619  -0.629  1.00  0.00    -0.648 OA
BRANCH   8  10
HETATM   10  O   UNL     1      -0.675  -0.123   0.436  1.00  0.00    -0.774 OA
HETATM   11  H   UNL     1      -1.566  -0.442   0.174  1.00  0.00     0.167 HD
ENDBRANCH   8  10
ENDBRANCH   1   8
TORSDOF 6
