REMARK  8 active torsions:
REMARK  status: ('A' for Active; 'I' for Inactive)
REMARK    1  A    between atoms: N_4  and  C_5 
REMARK    2  A    between atoms: C_8  and  C_9 
REMARK       I    between atoms: C_9  and  N_11 
REMARK    3  A    between atoms: N_11  and  C_12 
REMARK    4  A    between atoms: C_12  and  C_13 
REMARK    5  A    between atoms: C_13  and  C_14 
REMARK    6  A    between atoms: C_14  and  C_15 
REMARK    7  A    between atoms: C_15  and  N_16 
REMARK    8  A    between atoms: C_17  and  O_18 
ROOT
HETATM    1  C   UNL     1      -3.002  -1.422  -0.629  1.00  0.00     0.057 C 
HETATM    2  C   UNL     1      -3.172  -2.474  -1.539  1.00  0.00     0.032 C 
HETATM    3  C   UNL     1      -4.369  -3.186  -1.552  1.00  0.00     0.022 C 
HETATM    4  C   UNL     1      -5.372  -2.872  -0.627  1.00  0.00     0.065 C 
HETATM    5  C   UNL     1      -5.254  -1.746   0.191  1.00  0.00     0.083 C 
HETATM    6  C   UNL     1      -4.076  -0.999   0.174  1.00  0.00     0.068 C 
ENDROOT
BRANCH   4   7
HETATM    7  C   UNL     1      -6.467  -3.844  -0.441  1.00  0.00     0.254 C 
HETATM    8  O   UNL     1      -7.621  -3.563  -0.745  1.00  0.00    -0.268 OA
HETATM    9  N   UNL     1      -6.143  -5.100   0.032  1.00  0.00    -0.357 N 
HETATM   10  H   UNL     1      -6.966  -5.657   0.225  1.00  0.00     0.162 HD
BRANCH   9  11
HETATM   11  C   UNL     1      -4.886  -5.514   0.648  1.00  0.00     0.123 C 
BRANCH  11  12
HETATM   12  C   UNL     1      -4.568  -6.978   0.350  1.00  0.00     0.021 C 
BRANCH  12  13
HETATM   13  C   UNL     1      -3.065  -7.253   0.471  1.00  0.00     0.031 C 
BRANCH  13  14
HETATM   14  C   UNL     1      -2.749  -8.739   0.320  1.00  0.00     0.267 C 
BRANCH  14  15
HETATM   15  N   UNL     1      -1.307  -8.950   0.368  1.00  0.00     0.078 N 
HETATM   16  H   UNL     1      -1.110  -9.947   0.283  1.00  0.00     0.312 HD
HETATM   17  H   UNL     1      -0.866  -8.506  -0.437  1.00  0.00     0.312 HD
ENDBRANCH  14  15
ENDBRANCH  13  14
ENDBRANCH  12  13
ENDBRANCH  11  12
ENDBRANCH   9  11
ENDBRANCH   4   7
BRANCH   5  18
HETATM   18  O   UNL     1      -6.242  -1.424   1.076  1.00  0.00    -0.360 OA
HETATM   19  H   UNL     1      -6.098  -0.522   1.409  1.00  0.00     0.217 HD
ENDBRANCH   5  18
BRANCH   1  20
HETATM   20  N   UNL     1      -1.714  -0.880  -0.395  1.00  0.00    -0.247 N 
HETATM   21  C   UNL     1      -0.498  -1.443  -0.709  1.00  0.00     0.142 A 
HETATM   22  C   UNL     1       0.417  -0.721   0.023  1.00  0.00     0.065 A 
HETATM   23  C   UNL     1       1.855  -0.974   0.237  1.00  0.00     0.073 C 
HETATM   24  N   UNL     1      -0.222   0.315   0.640  1.00  0.00    -0.163 NA
HETATM   25  N   UNL     1      -1.518   0.213   0.381  1.00  0.00     0.009 NA
ENDBRANCH   1  20
TORSDOF 8
