REMARK  2 active torsions:
REMARK  status: ('A' for Active; 'I' for Inactive)
REMARK    1  A    between atoms: N_4  and  C_5 
REMARK    2  A    between atoms: C_13  and  N_14 
ROOT
HETATM    1  C   UNL     1       3.178  -1.549   0.006  1.00  0.00     0.190 A 
HETATM    2  N   UNL     1       4.334  -0.804   0.042  1.00  0.00    -0.201 NA
HETATM    3  C   UNL     1       5.438  -1.601   0.051  1.00  0.00     0.231 A 
HETATM    4  N   UNL     1       6.707  -1.197   0.072  1.00  0.00    -0.081 NA
HETATM    5  O   UNL     1       7.451  -2.378   0.068  1.00  0.00    -0.103 OA
HETATM    6  N   UNL     1       6.637  -3.512   0.054  1.00  0.00    -0.081 NA
HETATM    7  C   UNL     1       5.394  -3.034   0.040  1.00  0.00     0.231 A 
HETATM    8  N   UNL     1       4.242  -3.758   0.011  1.00  0.00    -0.208 NA
HETATM    9  C   UNL     1       3.132  -2.977  -0.016  1.00  0.00     0.151 A 
ENDROOT
BRANCH   1  10
HETATM   10  N   UNL     1       1.969  -0.793   0.018  1.00  0.00    -0.227 N 
HETATM   11  C   UNL     1       1.859   0.582  -0.021  1.00  0.00     0.144 A 
HETATM   12  C   UNL     1       0.507   0.832   0.003  1.00  0.00     0.065 A 
HETATM   13  C   UNL     1      -0.216   2.117  -0.054  1.00  0.00     0.073 C 
HETATM   14  N   UNL     1      -0.163  -0.354   0.104  1.00  0.00    -0.163 NA
HETATM   15  N   UNL     1       0.730  -1.334   0.132  1.00  0.00     0.011 NA
ENDBRANCH   1  10
BRANCH   9  16
HETATM   16  N   UNL     1       1.967  -3.710  -0.213  1.00  0.00    -0.284 NA
HETATM   17  H   UNL     1       1.147  -3.362   0.282  1.00  0.00     0.125 HD
HETATM   18  H   UNL     1       2.137  -4.705  -0.098  1.00  0.00     0.125 HD
ENDBRANCH   9  16
TORSDOF 2
