REMARK  3 active torsions:
REMARK  status: ('A' for Active; 'I' for Inactive)
REMARK    1  A    between atoms: C_2  and  N_3 
REMARK    2  A    between atoms: N_3  and  C_4 
REMARK    3  A    between atoms: C_4  and  C_5 
ROOT
HETATM    1  C   UNL     1       1.128   0.352   0.028  1.00  0.00     0.162 A 
HETATM    2  N   UNL     1       2.116  -0.523   0.064  1.00  0.00    -0.237 NA
HETATM    3  C   UNL     1       1.481  -1.738   0.098  1.00  0.00     0.144 A 
HETATM    4  C   UNL     1       0.123  -1.557   0.080  1.00  0.00     0.163 A 
HETATM    5  O   UNL     1      -0.123  -0.220   0.033  1.00  0.00    -0.305 OA
ENDROOT
BRANCH   1   6
HETATM    6  C   UNL     1       1.200   1.842  -0.026  1.00  0.00     0.208 C 
BRANCH   6   7
HETATM    7  N   UNL     1      -0.125   2.427  -0.101  1.00  0.00    -0.361 N 
HETATM    8  H   UNL     1      -0.914   1.808  -0.243  1.00  0.00     0.162 HD
BRANCH   7   9
HETATM    9  C   UNL     1      -0.315   3.775  -0.028  1.00  0.00     0.348 C 
HETATM   10  O   UNL     1       0.569   4.607   0.113  1.00  0.00    -0.284 OA
ENDBRANCH   7   9
ENDBRANCH   6   7
ENDBRANCH   1   6
TORSDOF 3
