REMARK  4 active torsions:
REMARK  status: ('A' for Active; 'I' for Inactive)
REMARK    1  A    between atoms: C_2  and  C_3 
REMARK    2  A    between atoms: C_2  and  S_5 
REMARK    3  A    between atoms: C_3  and  N_4 
REMARK    4  A    between atoms: S_5  and  C_6 
ROOT
HETATM    1  N   UNL     1       3.072  -2.217  -0.350  1.00  0.00    -0.295 NA
HETATM    2  C   UNL     1       2.854  -0.956  -0.518  1.00  0.00     0.096 C 
HETATM    3  H   UNL     1       2.286  -2.739  -0.758  1.00  0.00     0.187 HD
ENDROOT
BRANCH   2   4
HETATM    4  C   UNL     1       3.856   0.103  -0.090  1.00  0.00     0.332 C 
BRANCH   4   5
HETATM    5  N   UNL     1       3.207   1.199   0.646  1.00  0.00     0.084 N 
HETATM    6  H   UNL     1       3.936   1.790   1.050  1.00  0.00     0.313 HD
HETATM    7  H   UNL     1       2.721   1.803  -0.021  1.00  0.00     0.313 HD
ENDBRANCH   4   5
ENDBRANCH   2   4
BRANCH   2   8
HETATM    8  S   UNL     1       1.398  -0.461  -1.333  1.00  0.00    -0.045 SA
BRANCH   8   9
HETATM    9  C   UNL     1       0.444  -0.250   0.129  1.00  0.00     0.310 C 
HETATM   10  O   UNL     1      -0.711   0.156   0.072  1.00  0.00    -0.295 OA
ENDBRANCH   8   9
ENDBRANCH   2   8
TORSDOF 4
