REMARK  16 active torsions:
REMARK  status: ('A' for Active; 'I' for Inactive)
REMARK    1  A    between atoms: O_2  and  N_3 
REMARK       I    between atoms: N_3  and  C_5 
REMARK    2  A    between atoms: C_5  and  C_7 
REMARK    3  A    between atoms: C_7  and  N_8 
REMARK    4  A    between atoms: N_8  and  C_9 
REMARK    5  A    between atoms: C_9  and  C_10 
REMARK    6  A    between atoms: C_9  and  C_23 
REMARK    7  A    between atoms: C_10  and  C_11 
REMARK    8  A    between atoms: C_10  and  C_14 
REMARK    9  A    between atoms: C_11  and  C_12 
REMARK   10  A    between atoms: C_12  and  O_13 
REMARK   11  A    between atoms: C_14  and  C_16 
REMARK   12  A    between atoms: C_21  and  O_22 
REMARK   13  A    between atoms: C_23  and  O_24 
REMARK   14  A    between atoms: C_23  and  C_25 
REMARK   15  A    between atoms: C_25  and  C_27 
REMARK   16  A    between atoms: C_27  and  C_28 
ROOT
HETATM    1  C   UNL     1       1.004  -2.999   0.296  1.00  0.00     0.124 C 
ENDROOT
BRANCH   1   2
HETATM    2  N   UNL     1       1.781  -4.075  -0.237  1.00  0.00    -0.406 N 
HETATM    3  H   UNL     1       2.396  -3.892  -1.025  1.00  0.00     0.154 HD
BRANCH   2   4
HETATM    4  C   UNL     1       2.224  -5.001   0.806  1.00  0.00     0.213 C 
BRANCH   4   5
HETATM    5  C   UNL     1       3.592  -4.722   1.242  1.00  0.00     0.239 C 
HETATM    6  N   UNL     1       4.330  -4.500   0.000  1.00  0.00    -0.133 NA
HETATM    7  C   UNL     1       4.330  -3.500   0.000  1.00  0.00     0.153 C 
HETATM    8  O   UNL     1       4.036  -4.964   2.361  1.00  0.00    -0.276 OA
BRANCH   6   9
HETATM    9  O   UNL     1       5.196  -5.000   0.000  1.00  0.00    -0.301 OA
HETATM   10  C   UNL     1       5.196  -6.000   0.000  1.00  0.00     0.230 C 
ENDBRANCH   6   9
ENDBRANCH   4   5
ENDBRANCH   2   4
ENDBRANCH   1   2
BRANCH   1  11
HETATM   11  C   UNL     1       1.510  -1.528  -0.179  1.00  0.00     0.088 C 
BRANCH  11  12
HETATM   12  C   UNL     1       2.775  -0.761   0.477  1.00  0.00     0.040 C 
BRANCH  12  13
HETATM   13  C   UNL     1       3.607  -1.069   1.732  1.00  0.00     0.165 C 
BRANCH  13  14
HETATM   14  O   UNL     1       3.075  -2.121   2.485  1.00  0.00    -0.401 OA
HETATM   15  H   UNL     1       3.816  -2.551   2.957  1.00  0.00     0.209 HD
ENDBRANCH  13  14
ENDBRANCH  12  13
ENDBRANCH  11  12
BRANCH  11  16
HETATM   16  C   UNL     1       0.352  -0.571   0.009  1.00  0.00     0.168 C 
HETATM   17  O   UNL     1      -0.500  -0.837   0.884  1.00  0.00    -0.292 OA
BRANCH  16  18
HETATM   18  C   UNL     1       0.265   0.785  -0.644  1.00  0.00     0.043 C 
HETATM   19  C   UNL     1      -0.945   1.451  -0.453  1.00  0.00     0.079 C 
HETATM   20  C   UNL     1      -0.970   2.814  -0.199  1.00  0.00     0.037 C 
HETATM   21  C   UNL     1       0.221   3.535  -0.231  1.00  0.00     0.003 C 
HETATM   22  C   UNL     1       1.393   2.918  -0.669  1.00  0.00     0.001 C 
HETATM   23  C   UNL     1       1.400   1.547  -0.938  1.00  0.00     0.018 C 
BRANCH  19  24
HETATM   24  O   UNL     1      -2.113   0.738  -0.496  1.00  0.00    -0.360 OA
HETATM   25  H   UNL     1      -2.734   1.128   0.127  1.00  0.00     0.217 HD
ENDBRANCH  19  24
ENDBRANCH  16  18
ENDBRANCH  11  16
ENDBRANCH   1  11
BRANCH   1  26
HETATM   26  C   UNL     1      -0.480  -3.557   0.008  1.00  0.00     0.211 C 
BRANCH  26  27
HETATM   27  O   UNL     1      -1.097  -2.747  -0.992  1.00  0.00    -0.386 OA
HETATM   28  H   UNL     1      -1.681  -2.140  -0.493  1.00  0.00     0.210 HD
ENDBRANCH  26  27
BRANCH  26  29
HETATM   29  C   UNL     1      -0.922  -5.138  -0.317  1.00  0.00     0.164 C 
HETATM   30  O   UNL     1      -2.115  -5.427  -0.476  1.00  0.00    -0.295 OA
BRANCH  29  31
HETATM   31  C   UNL     1       0.098  -6.247  -0.362  1.00  0.00     0.159 C 
BRANCH  31  32
HETATM   32  C   UNL     1      -0.004  -7.716  -0.620  1.00  0.00     0.130 C 
HETATM   33  C   UNL     1      -1.197  -8.511  -0.217  1.00  0.00     0.091 C 
HETATM   34  O   UNL     1       1.019  -8.323  -0.990  1.00  0.00    -0.298 OA
ENDBRANCH  31  32
ENDBRANCH  29  31
ENDBRANCH  26  29
ENDBRANCH   1  26
TORSDOF 16
