REMARK  7 active torsions:
REMARK  status: ('A' for Active; 'I' for Inactive)
REMARK    1  A    between atoms: C_2  and  C_3 
REMARK    2  A    between atoms: C_2  and  N_7 
REMARK    3  A    between atoms: C_3  and  C_4 
REMARK    4  A    between atoms: N_7  and  C_8 
REMARK    5  A    between atoms: C_8  and  C_9 
REMARK    6  A    between atoms: C_9  and  S_12 
REMARK    7  A    between atoms: S_12  and  C_13 
ROOT
HETATM    1  N   UNL     1       1.053  -2.511   0.797  1.00  0.00     0.089 N 
HETATM    2  H   UNL     1       0.359  -2.111   1.430  1.00  0.00     0.316 HD
ENDROOT
BRANCH   1   3
HETATM    3  C   UNL     1       2.026  -1.485   0.410  1.00  0.00     0.216 C 
HETATM    4  C   UNL     1       3.276  -2.113  -0.215  1.00  0.00     0.042 C 
BRANCH   3   5
HETATM    5  C   UNL     1       1.494  -0.335  -0.467  1.00  0.00     0.039 C 
BRANCH   5   6
HETATM    6  C   UNL     1       0.324   0.387   0.149  1.00  0.00    -0.013 A 
HETATM    7  C   UNL     1      -0.285   1.572  -0.618  1.00  0.00     0.005 A 
HETATM    8  C   UNL     1      -1.019   0.250  -0.409  1.00  0.00     0.005 A 
ENDBRANCH   5   6
ENDBRANCH   3   5
ENDBRANCH   1   3
BRANCH   1   9
HETATM    9  C   UNL     1       0.359  -3.234  -0.273  1.00  0.00     0.290 C 
BRANCH   9  10
HETATM   10  C   UNL     1      -0.363  -4.513   0.264  1.00  0.00     0.034 C 
HETATM   11  C   UNL     1      -1.131  -5.212  -0.871  1.00  0.00     0.029 C 
HETATM   12  C   UNL     1       0.682  -5.505   0.815  1.00  0.00     0.029 C 
BRANCH  10  13
HETATM   13  S   UNL     1      -1.499  -4.126   1.679  1.00  0.00    -0.090 SA
BRANCH  13  14
HETATM   14  C   UNL     1      -2.917  -3.553   0.826  1.00  0.00     0.304 C 
HETATM   15  O   UNL     1      -3.967  -4.176   0.829  1.00  0.00    -0.295 OA
ENDBRANCH  13  14
ENDBRANCH  10  13
ENDBRANCH   9  10
ENDBRANCH   1   9
TORSDOF 7
