REMARK  3 active torsions:
REMARK  status: ('A' for Active; 'I' for Inactive)
REMARK    1  A    between atoms: S_2  and  C_3 
REMARK    2  A    between atoms: C_8  and  S_9 
REMARK    3  A    between atoms: S_9  and  C_10 
ROOT
HETATM    1  C   UNL     1       0.794   0.855  -0.000  1.00  0.00     0.001 A 
HETATM    2  C   UNL     1       2.012   1.527   0.000  1.00  0.00     0.020 A 
HETATM    3  C   UNL     1       3.189   0.784  -0.000  1.00  0.00     0.026 A 
HETATM    4  C   UNL     1       3.165  -0.630  -0.000  1.00  0.00     0.051 A 
HETATM    5 CL   UNL     1       4.723  -1.351  -0.000  1.00  0.00    -0.083 Cl
HETATM    6  C   UNL     1       1.948  -1.326   0.000  1.00  0.00     0.030 A 
HETATM    7  C   UNL     1       0.789  -0.537   0.000  1.00  0.00     0.039 A 
ENDROOT
BRANCH   6   8
HETATM    8  S   UNL     1       1.411  -3.016  -0.000  1.00  0.00    -0.060 SA
BRANCH   8   9
HETATM    9  C   UNL     1       2.655  -4.202  -0.000  1.00  0.00     0.309 C 
HETATM   10  O   UNL     1       3.856  -4.017  -0.000  1.00  0.00    -0.295 OA
ENDBRANCH   8   9
ENDBRANCH   6   8
BRANCH   1  11
HETATM   11  S   UNL     1      -0.866   1.500   0.000  1.00  0.00    -0.134 SA
HETATM   12  C   UNL     1      -0.866   2.500   0.000  1.00  0.00     0.095 C 
ENDBRANCH   1  11
TORSDOF 3
