REMARK  1 active torsions:
REMARK  status: ('A' for Active; 'I' for Inactive)
REMARK    1  A    between atoms: N_4  and  C_5 
ROOT
HETATM    1  C   UNL     1      -1.291  -3.370  -0.000  1.00  0.00     0.006 C 
HETATM    2  C   UNL     1       0.000  -2.000   0.000  1.00  0.00     0.010 A 
HETATM    3  C   UNL     1       0.000  -1.000   0.000  1.00  0.00     0.014 A 
HETATM    4  N   UNL     1      -1.000  -1.000   0.000  1.00  0.00     0.000 N 
HETATM    5  C   UNL     1       0.000   0.000   0.000  1.00  0.00     0.180 A 
HETATM    6  O   UNL     1       1.343   0.351   0.000  1.00  0.00    -0.389 OA
HETATM    7  C   UNL     1       1.000  -1.000   0.000  1.00  0.00     0.180 A 
HETATM    8  H   UNL     1      -1.763  -1.627   0.000  1.00  0.00     0.000 HD
ENDROOT
BRANCH   4   9
HETATM    9  C   UNL     1      -2.301  -0.201  -0.000  1.00  0.00     0.299 C 
HETATM   10  O   UNL     1      -3.362  -0.816   0.000  1.00  0.00    -0.299 OA
ENDBRANCH   4   9
TORSDOF 1
