REMARK  7 active torsions:
REMARK  status: ('A' for Active; 'I' for Inactive)
REMARK    1  A    between atoms: C_2  and  O_3 
REMARK    2  A    between atoms: C_2  and  C_4 
REMARK    3  A    between atoms: C_4  and  O_6 
REMARK    4  A    between atoms: O_6  and  C_7 
REMARK    5  A    between atoms: C_7  and  C_8 
REMARK    6  A    between atoms: C_8  and  O_9 
REMARK    7  A    between atoms: O_9  and  C_10 
ROOT
HETATM    1  C   UNL     1       2.011   0.512  -0.256  1.00  0.00     0.202 C 
ENDROOT
BRANCH   1   2
HETATM    2  C   UNL     1       2.075   2.035  -0.337  1.00  0.00     0.205 C 
BRANCH   2   3
HETATM    3  O   UNL     1       0.974   2.581   0.417  1.00  0.00    -0.317 OA
BRANCH   3   4
HETATM    4  C   UNL     1       0.705   3.896   0.548  1.00  0.00     0.287 C 
HETATM    5  O   UNL     1      -0.298   4.260   1.166  1.00  0.00    -0.262 OA
BRANCH   4   6
HETATM    6  C   UNL     1       1.605   4.953  -0.110  1.00  0.00     0.213 C 
HETATM    7  C   UNL     1       3.082   4.880   0.235  1.00  0.00     0.050 C 
BRANCH   6   8
HETATM    8  O   UNL     1       1.171   6.256   0.331  1.00  0.00    -0.386 OA
HETATM    9  H   UNL     1       0.272   6.135   0.705  1.00  0.00     0.210 HD
ENDBRANCH   6   8
ENDBRANCH   4   6
ENDBRANCH   3   4
ENDBRANCH   2   3
ENDBRANCH   1   2
BRANCH   1  10
HETATM   10  O   UNL     1       0.862   0.047  -0.963  1.00  0.00    -0.344 OA
BRANCH  10  11
HETATM   11  C   UNL     1       0.376  -1.173  -0.545  1.00  0.00     0.136 C 
HETATM   12  C   UNL     1      -1.107  -1.365  -0.567  1.00  0.00     0.186 C 
HETATM   13  C   UNL     1      -1.646  -2.542   0.192  1.00  0.00     0.112 C 
HETATM   14  O   UNL     1      -1.851  -0.545  -1.102  1.00  0.00    -0.290 OA
HETATM   15  C   UNL     1      -0.699  -3.702  -0.017  1.00  0.00     0.182 C 
HETATM   16  O   UNL     1       0.634  -3.395   0.412  1.00  0.00    -0.360 OA
HETATM   17  C   UNL     1       1.099  -2.187  -0.035  1.00  0.00     0.175 C 
ENDBRANCH  10  11
ENDBRANCH   1  10
TORSDOF 7
