REMARK  3 active torsions:
REMARK  status: ('A' for Active; 'I' for Inactive)
REMARK    1  A    between atoms: S_2  and  C_3 
REMARK    2  A    between atoms: C_3  and  C_5 
REMARK    3  A    between atoms: C_9  and  N_10 
ROOT
HETATM    1  C   UNL     1      -0.135   0.512  -0.055  1.00  0.00     0.043 A 
HETATM    2  C   UNL     1      -1.149   1.410   0.211  1.00  0.00     0.157 A 
HETATM    3  N   UNL     1      -0.922   2.731   0.319  1.00  0.00    -0.160 NA
HETATM    4  N   UNL     1       0.350   3.203   0.165  1.00  0.00    -0.139 NA
HETATM    5  C   UNL     1       1.369   2.361  -0.091  1.00  0.00     0.124 A 
HETATM    6  C   UNL     1       1.160   1.002  -0.227  1.00  0.00     0.063 A 
ENDROOT
BRANCH   1   7
HETATM    7  C   UNL     1      -0.384  -0.930  -0.206  1.00  0.00     0.220 C 
HETATM    8  O   UNL     1       0.198  -1.588  -1.057  1.00  0.00    -0.280 OA
BRANCH   7   9
HETATM    9  S   UNL     1      -1.467  -1.689   0.952  1.00  0.00    -0.092 SA
HETATM   10  C   UNL     1      -3.000  -1.633  -0.000  1.00  0.00     0.099 C 
ENDBRANCH   7   9
ENDBRANCH   1   7
BRANCH   5  11
HETATM   11  N   UNL     1       2.648   2.898  -0.245  1.00  0.00    -0.286 NA
HETATM   12  H   UNL     1       3.326   2.451   0.364  1.00  0.00     0.125 HD
HETATM   13  H   UNL     1       2.592   3.899  -0.069  1.00  0.00     0.125 HD
ENDBRANCH   5  11
TORSDOF 3
