REMARK  4 active torsions:
REMARK  status: ('A' for Active; 'I' for Inactive)
REMARK    1  A    between atoms: C_2  and  C_4 
REMARK    2  A    between atoms: C_4  and  C_5 
REMARK    3  A    between atoms: C_5  and  C_6 
REMARK    4  A    between atoms: C_6  and  S_8 
ROOT
HETATM    1  C   UNL     1       2.542  -0.637  -0.035  1.00  0.00     0.095 C 
ENDROOT
BRANCH   1   2
HETATM    2  C   UNL     1       3.818   0.206  -0.056  1.00  0.00     0.041 C 
BRANCH   2   3
HETATM    3  C   UNL     1       5.120  -0.574   0.041  1.00  0.00    -0.093 C 
HETATM    4  C   UNL     1       5.217  -1.915   0.081  1.00  0.00     0.014 C 
HETATM    5  C   UNL     1       6.367   0.270   0.104  1.00  0.00     0.042 C 
ENDBRANCH   2   3
ENDBRANCH   1   2
BRANCH   1   6
HETATM    6  C   UNL     1       1.274   0.191  -0.009  1.00  0.00     0.185 C 
HETATM    7  O   UNL     1       1.226   1.403  -0.134  1.00  0.00    -0.286 OA
BRANCH   6   8
HETATM    8  S   UNL     1      -0.169  -0.809   0.198  1.00  0.00    -0.097 SA
HETATM    9  C   UNL     1      -1.483   0.391  -0.082  1.00  0.00     0.098 C 
ENDBRANCH   6   8
ENDBRANCH   1   6
TORSDOF 4
