REMARK  2 active torsions:
REMARK  status: ('A' for Active; 'I' for Inactive)
REMARK    1  A    between atoms: C_7  and  O_8 
REMARK    2  A    between atoms: O_8  and  C_9 
ROOT
HETATM    1  C   UNL     1       2.260   2.260   0.000  1.00  0.00     0.015 C 
HETATM    2  C   UNL     1       1.951   1.309   0.000  1.00  0.00     0.011 C 
HETATM    3  C   UNL     1       2.947   0.166  -0.192  1.00  0.00    -0.026 C 
HETATM    4  C   UNL     1       2.390  -0.941  -0.707  1.00  0.00    -0.025 C 
HETATM    5  C   UNL     1       0.980  -0.696  -1.066  1.00  0.00     0.017 C 
HETATM    6  C   UNL     1      -0.105  -0.855   0.033  1.00  0.00     0.042 C 
HETATM    7  C   UNL     1      -0.633   0.548  -0.368  1.00  0.00     0.137 C 
HETATM    8  C   UNL     1       0.784   0.838  -0.941  1.00  0.00     0.030 C 
ENDROOT
BRANCH   7   9
HETATM    9  O   UNL     1      -1.096   1.388   0.707  1.00  0.00    -0.323 OA
BRANCH   9  10
HETATM   10  C   UNL     1      -1.522   2.623   0.340  1.00  0.00     0.398 C 
HETATM   11  O   UNL     1      -1.922   3.470   1.122  1.00  0.00    -0.276 OA
ENDBRANCH   9  10
ENDBRANCH   7   9
TORSDOF 2
