REMARK  5 active torsions:
REMARK  status: ('A' for Active; 'I' for Inactive)
REMARK    1  A    between atoms: S_2  and  C_3 
REMARK    2  A    between atoms: C_3  and  N_5 
REMARK    3  A    between atoms: N_5  and  C_6 
REMARK    4  A    between atoms: C_9  and  C_10 
REMARK    5  A    between atoms: C_10  and  O_12 
ROOT
HETATM    1  C   UNL     1      -0.892  -0.181  -0.950  1.00  0.00     0.039 A 
HETATM    2  C   UNL     1      -2.100   0.538  -1.021  1.00  0.00     0.031 A 
HETATM    3  C   UNL     1      -2.282   1.737  -0.328  1.00  0.00     0.020 A 
HETATM    4  C   UNL     1      -1.245   2.250   0.447  1.00  0.00     0.038 A 
HETATM    5  C   UNL     1      -0.036   1.548   0.522  1.00  0.00     0.027 A 
HETATM    6  C   UNL     1       0.173   0.351  -0.201  1.00  0.00    -0.034 A 
HETATM    7  C   UNL     1       1.580  -0.182  -0.188  1.00  0.00     0.050 C 
ENDROOT
BRANCH   1   8
HETATM    8  N   UNL     1      -0.840  -1.323  -1.773  1.00  0.00    -0.341 N 
HETATM    9  H   UNL     1      -1.398  -1.266  -2.619  1.00  0.00     0.167 HD
BRANCH   8  10
HETATM   10  C   UNL     1      -0.192  -2.527  -1.676  1.00  0.00     0.138 C 
HETATM   11  S   UNL     1      -0.032  -3.455  -3.061  1.00  0.00    -0.053 SA
BRANCH  10  12
HETATM   12  S   UNL     1       0.246  -3.144  -0.101  1.00  0.00    -0.105 SA
HETATM   13  C   UNL     1      -1.355  -3.799   0.416  1.00  0.00     0.098 C 
ENDBRANCH  10  12
ENDBRANCH   8  10
ENDBRANCH   1   8
BRANCH   4  14
HETATM   14  C   UNL     1      -1.355   3.546   1.152  1.00  0.00     0.176 C 
HETATM   15  O   UNL     1      -0.545   4.007   1.936  1.00  0.00    -0.646 OA
BRANCH  14  16
HETATM   16  O   UNL     1      -2.454   4.239   0.799  1.00  0.00    -0.773 OA
HETATM   17  H   UNL     1      -2.366   5.086   1.287  1.00  0.00     0.167 HD
ENDBRANCH  14  16
ENDBRANCH   4  14
TORSDOF 5
