REMARK  5 active torsions:
REMARK  status: ('A' for Active; 'I' for Inactive)
REMARK    1  A    between atoms: C_2  and  N_3 
REMARK    2  A    between atoms: C_2  and  C_14 
REMARK    3  A    between atoms: N_3  and  C_4 
REMARK    4  A    between atoms: C_4  and  O_6 
REMARK    5  A    between atoms: O_6  and  C_7 
ROOT
HETATM    1  N   UNL     1       0.465   2.556  -0.823  1.00  0.00    -0.255 NA
HETATM    2  H   UNL     1       0.677   3.522  -1.029  1.00  0.00     0.131 HD
ENDROOT
BRANCH   1   3
HETATM    3  C   UNL     1       1.359   2.096   0.252  1.00  0.00     0.091 C 
HETATM    4  C   UNL     1       2.744   2.726   0.036  1.00  0.00     0.032 C 
BRANCH   3   5
HETATM    5  C   UNL     1       1.400   0.584   0.422  1.00  0.00    -0.041 A 
HETATM    6  C   UNL     1       0.380  -0.046   1.156  1.00  0.00     0.009 A 
HETATM    7  C   UNL     1       0.335  -1.434   1.294  1.00  0.00     0.001 A 
HETATM    8  C   UNL     1       1.334  -2.221   0.731  1.00  0.00     0.000 A 
HETATM    9  C   UNL     1       2.378  -1.617   0.038  1.00  0.00     0.001 A 
HETATM   10  C   UNL     1       2.407  -0.227  -0.124  1.00  0.00     0.009 A 
ENDBRANCH   3   5
ENDBRANCH   1   3
BRANCH   1  11
HETATM   11  C   UNL     1      -0.906   2.544  -0.609  1.00  0.00     0.194 C 
HETATM   12  S   UNL     1      -1.645   3.984  -0.247  1.00  0.00    -0.039 SA
BRANCH  11  13
HETATM   13  O   UNL     1      -1.472   1.324  -0.768  1.00  0.00    -0.283 OA
BRANCH  13  14
HETATM   14  C   UNL     1      -2.630   0.422  -0.719  1.00  0.00     0.149 C 
HETATM   15  C   UNL     1      -3.996   0.837  -0.401  1.00  0.00     0.205 C 
HETATM   16  C   UNL     1      -4.852  -0.165  -0.122  1.00  0.00     0.057 C 
HETATM   17  O   UNL     1      -4.238   2.062  -0.469  1.00  0.00    -0.286 OA
HETATM   18  C   UNL     1      -4.485  -1.610  -0.164  1.00  0.00     0.206 C 
HETATM   19  O   UNL     1      -3.227  -1.932  -0.781  1.00  0.00    -0.356 OA
HETATM   20  C   UNL     1      -2.360  -0.879  -0.916  1.00  0.00     0.176 C 
ENDBRANCH  13  14
ENDBRANCH  11  13
ENDBRANCH   1  11
TORSDOF 5
