REMARK  3 active torsions:
REMARK  status: ('A' for Active; 'I' for Inactive)
REMARK    1  A    between atoms: S_2  and  C_3 
REMARK    2  A    between atoms: C_3  and  N_5 
REMARK    3  A    between atoms: N_5  and  C_6 
ROOT
HETATM    1  C   UNL     1      -0.217  -1.020  -0.035  1.00  0.00     0.094 C 
HETATM    2  C   UNL     1      -0.465  -2.506  -0.254  1.00  0.00     0.161 C 
HETATM    3  S   UNL     1      -2.109  -2.752   0.328  1.00  0.00     0.147 S 
HETATM    4  O   UNL     1      -2.072  -2.747   1.777  1.00  0.00    -0.228 OA
HETATM    5  O   UNL     1      -2.719  -3.822  -0.429  1.00  0.00    -0.228 OA
HETATM    6  C   UNL     1      -2.738  -1.196  -0.231  1.00  0.00     0.162 C 
HETATM    7  C   UNL     1      -1.524  -0.290  -0.447  1.00  0.00     0.115 C 
HETATM    8 CL   UNL     1      -1.738   1.200   0.535  1.00  0.00    -0.122 Cl
ENDROOT
BRANCH   1   9
HETATM    9  N   UNL     1       1.060  -0.665  -0.699  1.00  0.00    -0.274 NA
HETATM   10  H   UNL     1       1.803  -1.202  -0.267  1.00  0.00     0.129 HD
BRANCH   9  11
HETATM   11  C   UNL     1       1.505   0.620  -0.923  1.00  0.00     0.083 C 
HETATM   12  S   UNL     1       0.840   1.686  -2.017  1.00  0.00    -0.062 SA
BRANCH  11  13
HETATM   13  S   UNL     1       2.919   1.008   0.000  1.00  0.00    -0.244 SA
HETATM   14  C   UNL     1       3.662   0.339   0.000  1.00  0.00     0.266 C 
ENDBRANCH  11  13
ENDBRANCH   9  11
ENDBRANCH   1   9
TORSDOF 3
