REMARK  3 active torsions:
REMARK  status: ('A' for Active; 'I' for Inactive)
REMARK    1  A    between atoms: C_2  and  O_3 
REMARK    2  A    between atoms: O_3  and  C_4 
REMARK    3  A    between atoms: C_5  and  C_7 
ROOT
HETATM    1  C   UNL     1       2.726  -0.508  -0.000  1.00  0.00     0.165 C 
HETATM    2  C   UNL     1       1.528   0.108   0.000  1.00  0.00     0.048 C 
HETATM    3 CL   UNL     1       1.526   1.854   0.000  1.00  0.00    -0.086 Cl
ENDROOT
BRANCH   1   4
HETATM    4  O   UNL     1       3.949   0.174  -0.000  1.00  0.00    -0.297 OA
BRANCH   4   5
HETATM    5  C   UNL     1       5.069  -0.609  -0.000  1.00  0.00     0.402 C 
HETATM    6  O   UNL     1       5.129  -1.829   0.000  1.00  0.00    -0.276 OA
ENDBRANCH   4   5
ENDBRANCH   1   4
BRANCH   2   7
HETATM    7  C   UNL     1       0.217  -0.607  -0.000  1.00  0.00     0.167 C 
HETATM    8 CL   UNL     1      -1.211   0.367  -0.000  1.00  0.00    -0.125 Cl
ENDBRANCH   2   7
TORSDOF 3
