REMARK  5 active torsions:
REMARK  status: ('A' for Active; 'I' for Inactive)
REMARK    1  A    between atoms: S_2  and  C_3 
REMARK    2  A    between atoms: C_3  and  C_4 
REMARK    3  A    between atoms: C_4  and  O_5 
REMARK    4  A    between atoms: C_4  and  C_6 
REMARK    5  A    between atoms: C_9  and  C_10 
ROOT
HETATM    1  C   UNL     1       0.772   0.109   0.349  1.00  0.00    -0.029 A 
HETATM    2  C   UNL     1       1.851   0.807  -0.197  1.00  0.00     0.010 A 
HETATM    3  C   UNL     1       3.029   0.138  -0.544  1.00  0.00     0.010 A 
HETATM    4  C   UNL     1       3.157  -1.250  -0.397  1.00  0.00    -0.027 A 
HETATM    5  C   UNL     1       2.035  -1.959   0.043  1.00  0.00     0.010 A 
HETATM    6  C   UNL     1       0.863  -1.295   0.410  1.00  0.00     0.010 A 
ENDROOT
BRANCH   1   7
HETATM    7  C   UNL     1      -0.474   0.757   0.911  1.00  0.00     0.158 C 
BRANCH   7   8
HETATM    8  C   UNL     1      -0.477   2.314   1.095  1.00  0.00     0.075 C 
BRANCH   8   9
HETATM    9  S   UNL     1      -1.732   3.000   0.000  1.00  0.00    -0.292 SA
HETATM   10  C   UNL     1      -1.732   4.000   0.000  1.00  0.00     0.248 C 
ENDBRANCH   8   9
ENDBRANCH   7   8
BRANCH   7  11
HETATM   11  O   UNL     1      -1.586   0.240   0.166  1.00  0.00    -0.390 OA
HETATM   12  H   UNL     1      -2.068   1.017  -0.188  1.00  0.00     0.210 HD
ENDBRANCH   7  11
ENDBRANCH   1   7
BRANCH   4  13
HETATM   13  C   UNL     1       4.465  -1.934  -0.687  1.00  0.00     0.178 A 
HETATM   14  C   UNL     1       5.586  -1.827   0.326  1.00  0.00     0.205 A 
HETATM   15  O   UNL     1       4.847  -3.039   0.152  1.00  0.00    -0.376 OA
ENDBRANCH   4  13
TORSDOF 5
