REMARK  6 active torsions:
REMARK  status: ('A' for Active; 'I' for Inactive)
REMARK    1  A    between atoms: O_2  and  C_3 
REMARK    2  A    between atoms: C_3  and  C_5 
REMARK    3  A    between atoms: C_5  and  N_7 
REMARK    4  A    between atoms: C_5  and  C_12 
REMARK    5  A    between atoms: N_7  and  C_8 
REMARK    6  A    between atoms: C_8  and  S_10 
ROOT
HETATM    1  C   UNL     1       1.732   0.000   0.000  1.00  0.00     0.144 C 
HETATM    2  C   UNL     1       2.477  -0.415  -1.532  1.00  0.00     0.055 C 
ENDROOT
BRANCH   1   3
HETATM    3  C   UNL     1       2.232   0.866   0.000  1.00  0.00     0.291 C 
HETATM    4  O   UNL     1       2.913   1.113   1.021  1.00  0.00    -0.262 OA
BRANCH   3   5
HETATM    5  O   UNL     1       2.272   1.864  -0.955  1.00  0.00    -0.324 OA
HETATM    6  C   UNL     1       3.080   3.013  -0.665  1.00  0.00     0.213 C 
ENDBRANCH   3   5
ENDBRANCH   1   3
BRANCH   1   7
HETATM    7  N   UNL     1       1.232  -0.866   0.000  1.00  0.00    -0.354 N 
HETATM    8  H   UNL     1       0.263  -1.122  -0.198  1.00  0.00     0.162 HD
BRANCH   7   9
HETATM    9  C   UNL     1       1.724  -2.001   0.671  1.00  0.00     0.135 C 
HETATM   10  S   UNL     1       3.208  -2.258   1.400  1.00  0.00    -0.053 SA
BRANCH   9  11
HETATM   11  S   UNL     1       0.443  -3.212   0.633  1.00  0.00    -0.105 SA
HETATM   12  C   UNL     1       1.292  -4.582  -0.187  1.00  0.00     0.098 C 
ENDBRANCH   9  11
ENDBRANCH   7   9
ENDBRANCH   1   7
BRANCH   1  13
HETATM   13  C   UNL     1       0.180   0.826  -0.318  1.00  0.00    -0.021 A 
HETATM   14  C   UNL     1      -0.630   0.475  -1.445  1.00  0.00     0.010 A 
HETATM   15  C   UNL     1      -1.900   1.022  -1.590  1.00  0.00     0.001 A 
HETATM   16  C   UNL     1      -2.364   1.964  -0.670  1.00  0.00     0.000 A 
HETATM   17  C   UNL     1      -1.564   2.351   0.414  1.00  0.00     0.001 A 
HETATM   18  C   UNL     1      -0.321   1.764   0.615  1.00  0.00     0.010 A 
ENDBRANCH   1  13
TORSDOF 6
