REMARK  14 active torsions:
REMARK  status: ('A' for Active; 'I' for Inactive)
REMARK    1  A    between atoms: C_2  and  C_4 
REMARK    2  A    between atoms: C_4  and  C_5 
REMARK    3  A    between atoms: C_5  and  C_7 
REMARK    4  A    between atoms: C_7  and  O_8 
REMARK    5  A    between atoms: C_7  and  C_9 
REMARK    6  A    between atoms: C_9  and  C_11 
REMARK    7  A    between atoms: C_11  and  C_12 
REMARK    8  A    between atoms: C_11  and  C_15 
REMARK    9  A    between atoms: C_12  and  C_13 
REMARK   10  A    between atoms: C_13  and  O_14 
REMARK   11  A    between atoms: C_15  and  C_17 
REMARK   12  A    between atoms: C_22  and  O_23 
REMARK   13  A    between atoms: O_23  and  C_24 
REMARK   14  A    between atoms: C_24  and  C_26 
ROOT
HETATM    1  C   UNL     1      -4.550  -0.367  -0.057  1.00  0.00     0.044 A 
HETATM    2  C   UNL     1      -5.675   0.142  -0.713  1.00  0.00     0.018 A 
HETATM    3  C   UNL     1      -5.973   1.507  -0.610  1.00  0.00     0.001 A 
HETATM    4  C   UNL     1      -5.128   2.362   0.103  1.00  0.00     0.003 A 
HETATM    5  C   UNL     1      -4.025   1.852   0.787  1.00  0.00     0.038 A 
HETATM    6  C   UNL     1      -3.757   0.482   0.732  1.00  0.00     0.093 A 
ENDROOT
BRANCH   1   7
HETATM    7  C   UNL     1      -4.068  -1.762  -0.281  1.00  0.00     0.173 C 
HETATM    8  O   UNL     1      -2.890  -1.913  -0.605  1.00  0.00    -0.291 OA
BRANCH   7   9
HETATM    9  C   UNL     1      -5.001  -2.928  -0.057  1.00  0.00     0.135 C 
BRANCH   9  10
HETATM   10  C   UNL     1      -5.621  -3.443  -1.343  1.00  0.00     0.174 C 
HETATM   11  O   UNL     1      -5.035  -3.331  -2.419  1.00  0.00    -0.294 OA
BRANCH  10  12
HETATM   12  C   UNL     1      -7.022  -4.062  -1.224  1.00  0.00     0.258 C 
BRANCH  12  13
HETATM   13  C   UNL     1      -8.019  -2.905  -1.252  1.00  0.00     0.169 C 
HETATM   14  O   UNL     1      -8.395  -2.394  -2.304  1.00  0.00    -0.294 OA
BRANCH  13  15
HETATM   15  C   UNL     1      -8.423  -2.359   0.095  1.00  0.00     0.159 C 
BRANCH  15  16
HETATM   16  C   UNL     1      -9.574  -1.407   0.000  1.00  0.00     0.130 C 
HETATM   17  C   UNL     1      -9.574  -0.407   0.000  1.00  0.00     0.091 C 
HETATM   18  O   UNL     1     -10.649  -2.018  -0.205  1.00  0.00    -0.298 OA
ENDBRANCH  15  16
ENDBRANCH  13  15
ENDBRANCH  12  13
BRANCH  12  19
HETATM   19  O   UNL     1      -7.256  -5.043  -2.214  1.00  0.00    -0.380 OA
HETATM   20  H   UNL     1      -8.216  -5.117  -2.365  1.00  0.00     0.211 HD
ENDBRANCH  12  19
ENDBRANCH  10  12
ENDBRANCH   9  10
BRANCH   9  21
HETATM   21  C   UNL     1      -4.374  -4.095   0.729  1.00  0.00     0.046 C 
BRANCH  21  22
HETATM   22  C   UNL     1      -3.271  -4.872   0.012  1.00  0.00     0.165 C 
BRANCH  22  23
HETATM   23  O   UNL     1      -2.039  -4.176   0.096  1.00  0.00    -0.401 OA
HETATM   24  H   UNL     1      -2.105  -3.423  -0.536  1.00  0.00     0.209 HD
ENDBRANCH  22  23
ENDBRANCH  21  22
ENDBRANCH   9  21
ENDBRANCH   7   9
ENDBRANCH   1   7
BRANCH   6  25
HETATM   25  O   UNL     1      -2.751  -0.143   1.491  1.00  0.00    -0.273 OA
BRANCH  25  26
HETATM   26  C   UNL     1      -1.528   0.488   1.627  1.00  0.00     0.312 C 
HETATM   27  O   UNL     1      -1.337   1.629   2.009  1.00  0.00    -0.258 OA
BRANCH  26  28
HETATM   28  C   UNL     1      -0.492  -0.453   1.141  1.00  0.00     0.115 A 
HETATM   29  C   UNL     1       0.437  -0.060   0.258  1.00  0.00     0.036 A 
HETATM   30  C   UNL     1       1.029  -1.327  -0.220  1.00  0.00     0.263 A 
HETATM   31  C   UNL     1       0.740   1.250  -0.358  1.00  0.00     0.056 C 
HETATM   32  N   UNL     1       0.443  -2.355   0.498  1.00  0.00    -0.283 N 
HETATM   33  O   UNL     1       1.833  -1.436  -1.131  1.00  0.00    -0.267 OA
HETATM   34  N   UNL     1      -0.549  -1.829   1.334  1.00  0.00    -0.197 NA
HETATM   35  H   UNL     1       0.450  -3.335   0.232  1.00  0.00     0.184 HD
HETATM   36  H   UNL     1      -1.480  -2.202   1.122  1.00  0.00     0.153 HD
ENDBRANCH  26  28
ENDBRANCH  25  26
ENDBRANCH   6  25
TORSDOF 14
