REMARK  5 active torsions:
REMARK  status: ('A' for Active; 'I' for Inactive)
REMARK    1  A    between atoms: C_2  and  C_4 
REMARK    2  A    between atoms: C_4  and  C_5 
REMARK    3  A    between atoms: C_5  and  C_6 
REMARK    4  A    between atoms: C_6  and  O_7 
REMARK    5  A    between atoms: O_7  and  C_8 
ROOT
HETATM    1  C   UNL     1      -0.639  -1.682   0.275  1.00  0.00     0.118 A 
HETATM    2  C   UNL     1      -0.517  -3.000   0.078  1.00  0.00     0.040 A 
HETATM    3  C   UNL     1      -1.677  -3.915  -0.137  1.00  0.00     0.205 A 
HETATM    4  O   UNL     1      -2.975  -3.326  -0.118  1.00  0.00    -0.355 OA
HETATM    5  C   UNL     1      -3.031  -1.981   0.089  1.00  0.00     0.192 A 
HETATM    6  C   UNL     1      -2.015  -1.113   0.284  1.00  0.00     0.226 A 
HETATM    7  O   UNL     1      -2.125   0.124   0.486  1.00  0.00    -0.283 OA
ENDROOT
BRANCH   1   8
HETATM    8  O   UNL     1       0.559  -0.988   0.495  1.00  0.00    -0.347 OA
BRANCH   8   9
HETATM    9  C   UNL     1       0.588   0.415   0.275  1.00  0.00     0.176 C 
BRANCH   9  10
HETATM   10  C   UNL     1       2.030   0.939   0.276  1.00  0.00     0.028 C 
BRANCH  10  11
HETATM   11  C   UNL     1       2.011   2.437  -0.058  1.00  0.00     0.022 C 
BRANCH  11  12
HETATM   12  C   UNL     1       3.324   3.209   0.098  1.00  0.00     0.078 C 
HETATM   13  C   UNL     1       4.574   2.459  -0.334  1.00  0.00     0.026 C 
HETATM   14 CL   UNL     1       3.540   3.764   1.789  1.00  0.00    -0.125 Cl
ENDBRANCH  11  12
ENDBRANCH  10  11
ENDBRANCH   9  10
ENDBRANCH   8   9
ENDBRANCH   1   8
TORSDOF 5
