REMARK  4 active torsions:
REMARK  status: ('A' for Active; 'I' for Inactive)
REMARK    1  A    between atoms: O_2  and  C_3 
REMARK    2  A    between atoms: C_3  and  C_4 
REMARK    3  A    between atoms: C_4  and  C_6 
REMARK    4  A    between atoms: C_6  and  S_8 
ROOT
HETATM    1  C   UNL     1       2.893  -0.491   0.291  1.00  0.00     0.086 C 
HETATM    2  C   UNL     1       4.253   0.192   0.153  1.00  0.00     0.021 C 
ENDROOT
BRANCH   1   3
HETATM    3  C   UNL     1       2.853  -1.826  -0.463  1.00  0.00     0.179 C 
BRANCH   3   4
HETATM    4  O   UNL     1       2.019  -2.748   0.251  1.00  0.00    -0.395 OA
HETATM    5  C   UNL     1       0.687  -2.803  -0.236  1.00  0.00     0.201 C 
ENDBRANCH   3   4
ENDBRANCH   1   3
BRANCH   1   6
HETATM    6  C   UNL     1       1.827   0.433  -0.260  1.00  0.00     0.191 C 
HETATM    7  O   UNL     1       1.634   0.614  -1.455  1.00  0.00    -0.285 OA
BRANCH   6   8
HETATM    8  S   UNL     1       0.868   1.279   0.954  1.00  0.00    -0.097 SA
HETATM    9  C   UNL     1      -0.752   1.114   0.173  1.00  0.00     0.098 C 
ENDBRANCH   6   8
ENDBRANCH   1   6
TORSDOF 4
