REMARK  5 active torsions:
REMARK  status: ('A' for Active; 'I' for Inactive)
REMARK    1  A    between atoms: C_7  and  O_8 
REMARK    2  A    between atoms: O_8  and  C_9 
REMARK    3  A    between atoms: C_9  and  C_10 
REMARK    4  A    between atoms: C_10  and  O_11 
REMARK    5  A    between atoms: C_10  and  C_12 
ROOT
HETATM    1  C   UNL     1       2.290   0.316  -0.845  1.00  0.00     0.179 C 
ENDROOT
BRANCH   1   2
HETATM    2  C   UNL     1       2.865  -0.786  -1.749  1.00  0.00     0.210 C 
BRANCH   2   3
HETATM    3  O   UNL     1       4.217  -0.465  -2.125  1.00  0.00    -0.343 OA
BRANCH   3   4
HETATM    4  C   UNL     1       5.222  -0.894  -1.287  1.00  0.00     0.136 C 
HETATM    5  C   UNL     1       6.291   0.083  -0.918  1.00  0.00     0.186 C 
HETATM    6  O   UNL     1       6.243   1.254  -1.298  1.00  0.00    -0.290 OA
HETATM    7  C   UNL     1       7.359  -0.378   0.036  1.00  0.00     0.112 C 
HETATM    8  C   UNL     1       7.568  -1.865  -0.144  1.00  0.00     0.182 C 
HETATM    9  O   UNL     1       6.352  -2.599   0.024  1.00  0.00    -0.360 OA
HETATM   10  C   UNL     1       5.331  -2.130  -0.761  1.00  0.00     0.175 C 
ENDBRANCH   3   4
ENDBRANCH   2   3
ENDBRANCH   1   2
BRANCH   1  11
HETATM   11  O   UNL     1       1.610   1.285  -1.653  1.00  0.00    -0.390 OA
HETATM   12  H   UNL     1       1.062   1.814  -1.047  1.00  0.00     0.210 HD
ENDBRANCH   1  11
BRANCH   1  13
HETATM   13  C   UNL     1       1.378  -0.207   0.232  1.00  0.00     0.115 A 
HETATM   14  C   UNL     1       0.000  -1.000   0.000  1.00  0.00     0.160 A 
HETATM   15  C   UNL     1       0.000  -2.000   0.000  1.00  0.00     0.035 C 
HETATM   16  O   UNL     1       0.000   0.000   0.000  1.00  0.00    -0.366 OA
HETATM   17  C   UNL     1       0.761  -2.775   1.141  1.00  0.00     0.003 C 
HETATM   18  C   UNL     1       2.062  -2.094   1.606  1.00  0.00     0.003 C 
HETATM   19  C   UNL     1       1.927  -0.570   1.572  1.00  0.00     0.043 C 
ENDBRANCH   1  13
TORSDOF 5
