REMARK  2 active torsions:
REMARK  status: ('A' for Active; 'I' for Inactive)
REMARK    1  A    between atoms: C_2  and  S_3 
REMARK    2  A    between atoms: C_5  and  O_7 
ROOT
HETATM    1  S   UNL     1       2.000   0.000   0.000  1.00  0.00    -0.078 SA
HETATM    2  C   UNL     1       1.000   0.000   0.000  1.00  0.00     0.080 A 
HETATM    3  C   UNL     1       1.000   1.000   0.000  1.00  0.00     0.261 A 
HETATM    4  O   UNL     1       0.826   1.789  -1.026  1.00  0.00    -0.183 OA
HETATM    5  C   UNL     1       0.000   0.000   0.000  1.00  0.00     0.027 A 
HETATM    6  C   UNL     1      -0.364  -1.311   0.668  1.00  0.00     0.004 A 
HETATM    7  C   UNL     1       1.000  -1.000   0.000  1.00  0.00     0.027 A 
ENDROOT
BRANCH   1   8
HETATM    8  C   UNL     1       3.014   0.187  -1.449  1.00  0.00     0.299 C 
HETATM    9  O   UNL     1       4.141  -0.286  -1.465  1.00  0.00    -0.296 OA
ENDBRANCH   1   8
BRANCH   3  10
HETATM   10  O   UNL     1       1.015   1.865   1.239  1.00  0.00    -0.354 OA
HETATM   11  H   UNL     1       1.208   1.302   2.014  1.00  0.00     0.214 HD
ENDBRANCH   3  10
TORSDOF 2
