REMARK  4 active torsions:
REMARK  status: ('A' for Active; 'I' for Inactive)
REMARK    1  A    between atoms: C_9  and  N_11 
REMARK    2  A    between atoms: N_11  and  C_12 
REMARK    3  A    between atoms: C_12  and  O_14 
REMARK    4  A    between atoms: O_14  and  C_15 
ROOT
HETATM    1  N   UNL     1      -0.870  -0.502   0.000  1.00  0.00    -0.354 N 
HETATM    2  H   UNL     1      -1.222  -1.091   0.757  1.00  0.00     0.163 HD
ENDROOT
BRANCH   1   3
HETATM    3  C   UNL     1       0.000   0.000   0.000  1.00  0.00     0.016 A 
HETATM    4  C   UNL     1       0.870   0.502   0.000  1.00  0.00    -0.019 A 
HETATM    5  C   UNL     1       0.870   1.529   0.000  1.00  0.00     0.050 A 
HETATM    6  C   UNL     1       0.857   0.717  -1.813  1.00  0.00     0.018 C 
HETATM    7  C   UNL     1       2.313  -0.304  -0.051  1.00  0.00    -0.004 C 
HETATM    8  C   UNL     1       2.730  -0.689   1.362  1.00  0.00     0.006 C 
HETATM    9  C   UNL     1       1.923  -1.637  -0.635  1.00  0.00     0.012 C 
HETATM   10  C   UNL     1       1.597  -1.648   1.686  1.00  0.00     0.007 C 
HETATM   11  C   UNL     1       0.800  -1.602   0.355  1.00  0.00     0.012 C 
HETATM   12  C   UNL     1      -0.461   0.535   1.707  1.00  0.00     0.037 C 
ENDBRANCH   1   3
BRANCH   1  13
HETATM   13  C   UNL     1      -1.993  -0.345  -0.806  1.00  0.00     0.216 C 
HETATM   14  S   UNL     1      -2.112  -0.472  -2.473  1.00  0.00    -0.033 SA
BRANCH  13  15
HETATM   15  O   UNL     1      -3.149  -0.477  -0.062  1.00  0.00    -0.279 OA
BRANCH  15  16
HETATM   16  C   UNL     1      -3.991   0.641  -0.169  1.00  0.00     0.146 C 
HETATM   17  C   UNL     1      -3.815   1.810   0.742  1.00  0.00     0.186 C 
HETATM   18  C   UNL     1      -4.308   3.118   0.208  1.00  0.00     0.112 C 
HETATM   19  O   UNL     1      -3.286   1.691   1.845  1.00  0.00    -0.290 OA
HETATM   20  C   UNL     1      -5.735   2.870  -0.256  1.00  0.00     0.182 C 
HETATM   21  O   UNL     1      -5.829   1.823  -1.232  1.00  0.00    -0.360 OA
HETATM   22  C   UNL     1      -5.003   0.747  -1.042  1.00  0.00     0.175 C 
ENDBRANCH  15  16
ENDBRANCH  13  15
ENDBRANCH   1  13
TORSDOF 4
