REMARK  3 active torsions:
REMARK  status: ('A' for Active; 'I' for Inactive)
REMARK    1  A    between atoms: C_5  and  C_6 
REMARK    2  A    between atoms: C_6  and  O_7 
REMARK    3  A    between atoms: CA_14  and  C_15 
ROOT
HETATM    1  C   UNL     1       1.580  -1.035  -0.180  1.00  0.00     0.070 C 
HETATM    2  C   UNL     1       0.109  -0.829   0.020  1.00  0.00     0.031 A 
HETATM    3  C   UNL     1      -0.659  -1.780   0.666  1.00  0.00     0.027 A 
HETATM    4  C   UNL     1      -2.028  -1.560   0.767  1.00  0.00     0.015 A 
HETATM    5  C   UNL     1      -2.669  -0.433   0.197  1.00  0.00     0.016 A 
HETATM    6  CA  UNL     1      -1.780   0.496  -0.336  1.00  0.00     0.104 A 
HETATM    7  N   UNL     1      -0.422   0.310  -0.462  1.00  0.00    -0.250 NA
ENDROOT
BRANCH   5   8
HETATM    8  C   UNL     1      -4.216  -0.391   0.250  1.00  0.00     0.155 C 
HETATM    9  C   UNL     1      -4.986  -1.638  -0.347  1.00  0.00     0.209 C 
HETATM   10  C   UNL     1      -6.325  -1.530  -0.489  1.00  0.00     0.188 C 
HETATM   11  O   UNL     1      -4.286  -2.626  -0.710  1.00  0.00    -0.287 OA
HETATM   12  O   UNL     1      -7.115  -0.440  -0.303  1.00  0.00    -0.359 OA
HETATM   13  C   UNL     1      -6.433   0.778  -0.043  1.00  0.00     0.178 C 
HETATM   14  C   UNL     1      -4.940   0.810  -0.380  1.00  0.00     0.078 C 
BRANCH   8  15
HETATM   15  O   UNL     1      -4.517  -0.318   1.672  1.00  0.00    -0.377 OA
HETATM   16  H   UNL     1      -3.886   0.316   2.042  1.00  0.00     0.211 HD
ENDBRANCH   8  15
ENDBRANCH   5   8
BRANCH   6  17
HETATM   17  C   UNL     1      -2.106   1.896  -0.685  1.00  0.00     0.290 C 
HETATM   18  O   UNL     1      -2.616   2.693   0.096  1.00  0.00    -0.300 OA
ENDBRANCH   6  17
TORSDOF 3
