REMARK  2 active torsions:
REMARK  status: ('A' for Active; 'I' for Inactive)
REMARK    1  A    between atoms: S_2  and  C_3 
REMARK    2  A    between atoms: C_3  and  C_5 
ROOT
HETATM    1  C   UNL     1      -0.120   0.405   0.228  1.00  0.00     0.038 A 
HETATM    2  C   UNL     1      -1.166   1.314   0.417  1.00  0.00     0.019 A 
HETATM    3  C   UNL     1      -0.946   2.675   0.208  1.00  0.00     0.020 A 
HETATM    4  C   UNL     1       0.322   3.089  -0.164  1.00  0.00     0.116 A 
HETATM    5  N   UNL     1       1.359   2.246  -0.343  1.00  0.00    -0.272 NA
HETATM    6  C   UNL     1       1.116   0.924  -0.147  1.00  0.00     0.132 A 
ENDROOT
BRANCH   1   7
HETATM    7  C   UNL     1      -0.237  -1.070   0.364  1.00  0.00     0.220 C 
HETATM    8  O   UNL     1       0.652  -1.810  -0.029  1.00  0.00    -0.280 OA
BRANCH   7   9
HETATM    9  S   UNL     1      -1.675  -1.744   1.122  1.00  0.00    -0.092 SA
HETATM   10  C   UNL     1      -2.820  -1.640  -0.271  1.00  0.00     0.099 C 
ENDBRANCH   7   9
ENDBRANCH   1   7
TORSDOF 2
