REMARK  6 active torsions:
REMARK  status: ('A' for Active; 'I' for Inactive)
REMARK    1  A    between atoms: C_2  and  C_3 
REMARK    2  A    between atoms: C_3  and  C_4 
REMARK    3  A    between atoms: C_3  and  C_8 
REMARK    4  A    between atoms: C_4  and  O_5 
REMARK    5  A    between atoms: O_5  and  C_6 
REMARK    6  A    between atoms: C_8  and  O_10 
ROOT
HETATM    1  C   UNL     1      -1.339   1.183   0.357  1.00  0.00     0.107 C 
ENDROOT
BRANCH   1   2
HETATM    2  C   UNL     1       0.000   2.000   0.000  1.00  0.00     0.013 C 
HETATM    3  C   UNL     1       0.866   1.500   0.000  1.00  0.00     0.006 C 
ENDBRANCH   1   2
BRANCH   1   4
HETATM    4  C   UNL     1      -2.614   1.851  -0.226  1.00  0.00     0.193 C 
BRANCH   4   5
HETATM    5  O   UNL     1      -3.617   0.975  -0.770  1.00  0.00    -0.328 OA
BRANCH   5   6
HETATM    6  C   UNL     1      -4.580   0.490   0.055  1.00  0.00     0.398 C 
HETATM    7  O   UNL     1      -5.700   0.185  -0.312  1.00  0.00    -0.276 OA
ENDBRANCH   5   6
ENDBRANCH   4   5
ENDBRANCH   1   4
BRANCH   1   8
HETATM    8  C   UNL     1      -1.357  -0.323   0.194  1.00  0.00     0.145 C 
HETATM    9  O   UNL     1      -2.052  -1.073   0.873  1.00  0.00    -0.650 OA
BRANCH   8  10
HETATM   10  O   UNL     1      -0.575  -0.825  -0.761  1.00  0.00    -0.776 OA
HETATM   11  H   UNL     1      -0.696  -1.797  -0.683  1.00  0.00     0.167 HD
ENDBRANCH   8  10
ENDBRANCH   1   8
TORSDOF 6
