REMARK  3 active torsions:
REMARK  status: ('A' for Active; 'I' for Inactive)
REMARK    1  A    between atoms: S_2  and  C_3 
REMARK       I    between atoms: C_3  and  N_5 
REMARK    2  A    between atoms: N_5  and  C_6 
REMARK    3  A    between atoms: N_10  and  C_11 
ROOT
HETATM    1  C   UNL     1       2.714   0.260   0.143  1.00  0.00     0.112 C 
HETATM    2  C   UNL     1       3.505  -1.016   0.457  1.00  0.00     0.130 C 
HETATM    3  C   UNL     1       2.433  -2.086   0.390  1.00  0.00     0.226 C 
HETATM    4  O   UNL     1       2.546  -3.183   0.923  1.00  0.00    -0.273 OA
HETATM    5  N   UNL     1       1.344  -1.542  -0.308  1.00  0.00    -0.316 N 
HETATM    6  C   UNL     1       1.714  -0.271  -0.872  1.00  0.00     0.157 C 
ENDROOT
BRANCH   5   7
HETATM    7  C   UNL     1       0.015  -2.019  -0.237  1.00  0.00     0.037 A 
HETATM    8  C   UNL     1      -1.076  -1.136  -0.262  1.00  0.00     0.037 A 
HETATM    9  C   UNL     1      -2.410  -1.578  -0.135  1.00  0.00    -0.054 A 
HETATM   10  C   UNL     1      -2.656  -2.956  -0.041  1.00  0.00    -0.056 A 
HETATM   11  C   UNL     1      -3.471  -0.512  -0.084  1.00  0.00     0.049 C 
HETATM   12  C   UNL     1      -1.562  -3.838  -0.010  1.00  0.00     0.009 A 
HETATM   13  C   UNL     1      -4.023  -3.576   0.044  1.00  0.00     0.049 C 
HETATM   14  C   UNL     1      -0.246  -3.376  -0.091  1.00  0.00     0.030 A 
ENDBRANCH   5   7
BRANCH   1  15
HETATM   15  N   UNL     1       2.063   0.794   1.351  1.00  0.00    -0.345 N 
HETATM   16  C   UNL     1       1.199   1.844   1.497  1.00  0.00     0.279 C 
HETATM   17  O   UNL     1       0.608   2.016   2.555  1.00  0.00    -0.260 OA
HETATM   18  H   UNL     1       2.023   0.194   2.169  1.00  0.00     0.163 HD
BRANCH  16  19
HETATM   19  S   UNL     1       0.902   2.878   0.126  1.00  0.00    -0.074 SA
HETATM   20  C   UNL     1       2.523   3.622  -0.096  1.00  0.00     0.100 C 
ENDBRANCH  16  19
ENDBRANCH   1  15
TORSDOF 3
