REMARK  2 active torsions:
REMARK  status: ('A' for Active; 'I' for Inactive)
REMARK    1  A    between atoms: N_4  and  C_5 
REMARK    2  A    between atoms: C_5  and  C_6 
ROOT
HETATM    1  C   UNL     1      -4.363   1.127  -0.013  1.00  0.00     0.038 A 
HETATM    2  C   UNL     1      -4.886  -0.109  -0.073  1.00  0.00     0.082 A 
HETATM    3  S   UNL     1      -6.629  -0.100  -0.125  1.00  0.00    -0.039 SA
HETATM    4  C   UNL     1      -6.662   1.656  -0.072  1.00  0.00     0.288 A 
HETATM    5  O   UNL     1      -7.663   2.345  -0.084  1.00  0.00    -0.260 OA
HETATM    6  N   UNL     1      -5.361   2.089  -0.013  1.00  0.00    -0.319 N 
HETATM    7  H   UNL     1      -5.190   3.085   0.022  1.00  0.00     0.169 HD
ENDROOT
BRANCH   1   8
HETATM    8  C   UNL     1      -2.946   1.639   0.047  1.00  0.00     0.203 C 
BRANCH   8   9
HETATM    9  N   UNL     1      -1.787   0.750   0.074  1.00  0.00    -0.278 N 
HETATM   10  C   UNL     1      -1.646  -0.600   0.058  1.00  0.00     0.136 A 
HETATM   11  C   UNL     1      -0.285  -0.811   0.022  1.00  0.00     0.065 A 
HETATM   12  C   UNL     1       0.457  -2.083  -0.050  1.00  0.00     0.073 C 
HETATM   13  N   UNL     1       0.353   0.393   0.062  1.00  0.00    -0.164 NA
HETATM   14  N   UNL     1      -0.571   1.343   0.100  1.00  0.00     0.005 NA
ENDBRANCH   8   9
ENDBRANCH   1   8
TORSDOF 2
