REMARK  5 active torsions:
REMARK  status: ('A' for Active; 'I' for Inactive)
REMARK    1  A    between atoms: C_7  and  O_8 
REMARK    2  A    between atoms: O_8  and  C_9 
REMARK    3  A    between atoms: C_9  and  C_10 
REMARK    4  A    between atoms: C_10  and  O_11 
REMARK    5  A    between atoms: C_10  and  C_12 
ROOT
HETATM    1  C   UNL     1      -1.809  -0.789  -0.403  1.00  0.00     0.176 C 
ENDROOT
BRANCH   1   2
HETATM    2  C   UNL     1      -2.830  -1.703   0.308  1.00  0.00     0.212 C 
BRANCH   2   3
HETATM    3  O   UNL     1      -3.684  -1.006   1.240  1.00  0.00    -0.344 OA
BRANCH   3   4
HETATM    4  C   UNL     1      -4.271   0.147   0.739  1.00  0.00     0.119 C 
HETATM    5  C   UNL     1      -5.368   0.117  -0.239  1.00  0.00     0.226 C 
HETATM    6  O   UNL     1      -5.612  -1.017  -0.729  1.00  0.00    -0.283 OA
HETATM    7  C   UNL     1      -5.995   1.291  -0.470  1.00  0.00     0.192 C 
HETATM    8  O   UNL     1      -5.669   2.521   0.036  1.00  0.00    -0.355 OA
HETATM    9  C   UNL     1      -4.369   2.608   0.622  1.00  0.00     0.205 C 
HETATM   10  C   UNL     1      -3.833   1.339   1.186  1.00  0.00     0.040 C 
ENDBRANCH   3   4
ENDBRANCH   2   3
ENDBRANCH   1   2
BRANCH   1  11
HETATM   11  O   UNL     1      -2.172  -0.598  -1.776  1.00  0.00    -0.389 OA
HETATM   12  H   UNL     1      -3.148  -0.460  -1.758  1.00  0.00     0.210 HD
ENDBRANCH   1  11
BRANCH   1  13
HETATM   13  C   UNL     1      -0.353  -1.199  -0.292  1.00  0.00    -0.009 A 
HETATM   14  C   UNL     1       0.728  -0.232  -0.195  1.00  0.00    -0.010 A 
HETATM   15  C   UNL     1       1.975  -0.849  -0.060  1.00  0.00     0.015 A 
HETATM   16  C   UNL     1       0.699   1.189  -0.208  1.00  0.00     0.013 A 
HETATM   17  S   UNL     1       1.827  -2.563  -0.087  1.00  0.00    -0.101 SA
HETATM   18  C   UNL     1       3.162  -0.097   0.071  1.00  0.00     0.019 A 
HETATM   19  C   UNL     1       0.135  -2.491  -0.281  1.00  0.00     0.061 A 
HETATM   20  C   UNL     1       3.092   1.297   0.060  1.00  0.00     0.001 A 
HETATM   21  C   UNL     1       1.872   1.938  -0.083  1.00  0.00     0.001 A 
ENDBRANCH   1  13
TORSDOF 5
