REMARK  2 active torsions:
REMARK  status: ('A' for Active; 'I' for Inactive)
REMARK    1  A    between atoms: S_2  and  C_3 
REMARK    2  A    between atoms: C_3  and  C_5 
ROOT
HETATM    1  C   UNL     1       0.243   0.130   1.319  1.00  0.00     0.068 A 
HETATM    2  C   UNL     1      -0.322  -1.155   0.755  1.00  0.00     0.018 A 
HETATM    3  C   UNL     1      -0.664   0.157   0.104  1.00  0.00    -0.006 A 
HETATM    4  C   UNL     1      -2.036   0.728   0.216  1.00  0.00     0.011 C 
ENDROOT
BRANCH   1   5
HETATM    5  C   UNL     1       1.652   0.622   1.215  1.00  0.00     0.160 C 
HETATM    6  O   UNL     1       2.028   1.498   1.983  1.00  0.00    -0.288 OA
BRANCH   5   7
HETATM    7  S   UNL     1       2.732   0.000   0.000  1.00  0.00    -0.232 SA
HETATM    8  C   UNL     1       2.732  -1.000   0.000  1.00  0.00     0.270 C 
ENDBRANCH   5   7
ENDBRANCH   1   5
TORSDOF 2
