REMARK  3 active torsions:
REMARK  status: ('A' for Active; 'I' for Inactive)
REMARK    1  A    between atoms: S_2  and  C_3 
REMARK    2  A    between atoms: C_3  and  C_5 
REMARK    3  A    between atoms: C_5  and  C_6 
ROOT
HETATM    1  C   UNL     1       0.421  -0.774   0.055  1.00  0.00     0.161 C 
HETATM    2  C   UNL     1       1.886  -1.186  -0.114  1.00  0.00     0.049 C 
HETATM    3  C   UNL     1      -0.481  -2.020   0.059  1.00  0.00     0.043 C 
HETATM    4  C   UNL     1      -1.832  -1.511  -0.416  1.00  0.00     0.033 C 
HETATM    5  C   UNL     1      -1.522  -0.238  -1.187  1.00  0.00     0.270 C 
HETATM    6  N   UNL     1      -0.064  -0.120  -1.170  1.00  0.00     0.093 N 
HETATM    7  H   UNL     1       0.212   0.863  -1.218  1.00  0.00     0.316 HD
ENDROOT
BRANCH   1   8
HETATM    8  C   UNL     1       0.207   0.041   1.358  1.00  0.00     0.131 C 
BRANCH   8   9
HETATM    9  C   UNL     1       1.016   1.313   1.523  1.00  0.00     0.188 C 
HETATM   10  O   UNL     1       1.690   1.539   2.524  1.00  0.00    -0.285 OA
BRANCH   9  11
HETATM   11  S   UNL     1       0.857   2.540   0.272  1.00  0.00    -0.097 SA
HETATM   12  C   UNL     1       2.605   2.690  -0.163  1.00  0.00     0.098 C 
ENDBRANCH   9  11
ENDBRANCH   8   9
ENDBRANCH   1   8
TORSDOF 3
