REMARK  10 active torsions:
REMARK  status: ('A' for Active; 'I' for Inactive)
REMARK    1  A    between atoms: O_1  and  C_2 
REMARK    2  A    between atoms: C_7  and  O_8 
REMARK    3  A    between atoms: O_8  and  C_9 
REMARK    4  A    between atoms: C_9  and  C_10 
REMARK    5  A    between atoms: C_10  and  O_11 
REMARK    6  A    between atoms: C_10  and  C_12 
REMARK    7  A    between atoms: C_12  and  N_13 
REMARK    8  A    between atoms: C_15  and  C_16 
REMARK    9  A    between atoms: C_16  and  O_17 
REMARK   10  A    between atoms: O_17  and  C_18 
ROOT
HETATM    1  C   UNL     1       0.907  -1.308   0.142  1.00  0.00     0.179 C 
ENDROOT
BRANCH   1   2
HETATM    2  C   UNL     1       2.310  -0.727   0.155  1.00  0.00     0.162 C 
BRANCH   2   3
HETATM    3  C   UNL     1       3.331  -1.865   0.065  1.00  0.00     0.209 C 
BRANCH   3   4
HETATM    4  O   UNL     1       4.613  -1.256  -0.035  1.00  0.00    -0.346 OA
BRANCH   4   5
HETATM    5  C   UNL     1       5.721  -2.059  -0.054  1.00  0.00     0.102 A 
HETATM    6  C   UNL     1       6.970  -1.337  -0.117  1.00  0.00     0.120 A 
HETATM    7  C   UNL     1       8.131  -2.003  -0.126  1.00  0.00     0.174 A 
HETATM    8  O   UNL     1       8.266  -3.364  -0.087  1.00  0.00    -0.356 OA
HETATM    9  C   UNL     1       7.064  -4.152  -0.046  1.00  0.00     0.205 A 
HETATM   10  C   UNL     1       5.763  -3.399  -0.021  1.00  0.00     0.039 A 
BRANCH   6  11
HETATM   11  O   UNL     1       6.884   0.035  -0.158  1.00  0.00    -0.356 OA
HETATM   12  H   UNL     1       7.782   0.396  -0.215  1.00  0.00     0.218 HD
ENDBRANCH   6  11
ENDBRANCH   4   5
ENDBRANCH   3   4
ENDBRANCH   2   3
BRANCH   2  13
HETATM   13  O   UNL     1       2.533  -0.022   1.384  1.00  0.00    -0.392 OA
HETATM   14  H   UNL     1       3.434   0.352   1.308  1.00  0.00     0.210 HD
ENDBRANCH   2  13
ENDBRANCH   1   2
BRANCH   1  15
HETATM   15  N   UNL     1      -0.161  -0.335   0.060  1.00  0.00    -0.281 N 
HETATM   16  N   UNL     1      -0.077   0.738  -0.746  1.00  0.00     0.004 NA
HETATM   17  N   UNL     1      -1.313   1.162  -0.977  1.00  0.00    -0.161 NA
HETATM   18  C   UNL     1      -2.175   0.324  -0.322  1.00  0.00     0.092 A 
HETATM   19  C   UNL     1      -1.451  -0.572   0.433  1.00  0.00     0.138 A 
BRANCH  18  20
HETATM   20  C   UNL     1      -3.633   0.322  -0.584  1.00  0.00     0.233 C 
BRANCH  20  21
HETATM   21  O   UNL     1      -4.033  -1.012  -0.909  1.00  0.00    -0.355 OA
BRANCH  21  22
HETATM   22  C   UNL     1      -5.132  -1.465  -0.140  1.00  0.00     0.260 C 
HETATM   23  C   UNL     1      -5.251  -2.968  -0.351  1.00  0.00     0.061 C 
HETATM   24  C   UNL     1      -6.653  -3.533  -0.166  1.00  0.00     0.007 C 
HETATM   25  C   UNL     1      -7.711  -2.582   0.386  1.00  0.00     0.026 C 
HETATM   26  C   UNL     1      -7.381  -1.096   0.325  1.00  0.00     0.171 C 
HETATM   27  O   UNL     1      -6.313  -0.813  -0.565  1.00  0.00    -0.361 OA
ENDBRANCH  21  22
ENDBRANCH  20  21
ENDBRANCH  18  20
ENDBRANCH   1  15
TORSDOF 10
