REMARK  3 active torsions:
REMARK  status: ('A' for Active; 'I' for Inactive)
REMARK    1  A    between atoms: C_2  and  C_3 
REMARK    2  A    between atoms: C_3  and  O_4 
REMARK    3  A    between atoms: O_4  and  C_5 
ROOT
HETATM    1  C   UNL     1       0.760  -0.371   0.047  1.00  0.00     0.091 C 
HETATM    2  C   UNL     1       0.414  -1.310  -1.120  1.00  0.00     0.069 C 
HETATM    3  C   UNL     1      -0.628  -2.346  -0.697  1.00  0.00     0.171 C 
HETATM    4  O   UNL     1      -1.480  -1.888   0.357  1.00  0.00    -0.391 OA
HETATM    5  C   UNL     1      -1.795  -0.509   0.241  1.00  0.00     0.171 C 
HETATM    6  C   UNL     1      -0.552   0.363   0.439  1.00  0.00     0.069 C 
ENDROOT
BRANCH   1   7
HETATM    7  C   UNL     1       1.794   0.685  -0.326  1.00  0.00     0.001 C 
HETATM    8  C   UNL     1       3.126   0.622  -0.191  1.00  0.00     0.010 C 
ENDBRANCH   1   7
BRANCH   1   9
HETATM    9  O   UNL     1       1.173  -1.062   1.261  1.00  0.00    -0.313 OA
BRANCH   9  10
HETATM   10  C   UNL     1       2.019  -2.117   1.246  1.00  0.00     0.399 C 
HETATM   11  O   UNL     1       2.581  -2.615   0.281  1.00  0.00    -0.276 OA
ENDBRANCH   9  10
ENDBRANCH   1   9
TORSDOF 3
