REMARK  2 active torsions:
REMARK  status: ('A' for Active; 'I' for Inactive)
REMARK    1  A    between atoms: S_2  and  C_3 
REMARK    2  A    between atoms: C_3  and  C_5 
ROOT
HETATM    1  C   UNL     1      -0.279  -0.240   0.380  1.00  0.00     0.070 C 
HETATM    2  C   UNL     1      -0.801  -1.611  -0.065  1.00  0.00     0.016 C 
HETATM    3  C   UNL     1      -2.320  -1.486  -0.168  1.00  0.00     0.038 C 
HETATM    4  C   UNL     1      -2.642  -0.066   0.260  1.00  0.00     0.171 C 
HETATM    5  F   UNL     1      -3.695   0.415  -0.438  1.00  0.00    -0.249 F 
HETATM    6  C   UNL     1      -1.385   0.720  -0.051  1.00  0.00     0.050 C 
ENDROOT
BRANCH   1   7
HETATM    7  C   UNL     1       1.063   0.092  -0.244  1.00  0.00     0.189 C 
HETATM    8  O   UNL     1       1.211   0.757  -1.258  1.00  0.00    -0.285 OA
BRANCH   7   9
HETATM    9  S   UNL     1       2.458  -0.573   0.608  1.00  0.00    -0.097 SA
HETATM   10  C   UNL     1       2.553  -2.166  -0.236  1.00  0.00     0.098 C 
ENDBRANCH   7   9
ENDBRANCH   1   7
TORSDOF 2
