REMARK  3 active torsions:
REMARK  status: ('A' for Active; 'I' for Inactive)
REMARK    1  A    between atoms: O_2  and  C_3 
REMARK       I    between atoms: C_3  and  N_5 
REMARK    2  A    between atoms: N_5  and  C_6 
REMARK    3  A    between atoms: N_5  and  C_8 
ROOT
HETATM    1  C   UNL     1       1.441   2.308   0.000  1.00  0.00     0.375 C 
HETATM    2  O   UNL     1       1.694   3.518   0.000  1.00  0.00    -0.237 OA
HETATM    3  N   UNL     1       0.049   1.866   0.000  1.00  0.00    -0.211 N 
ENDROOT
BRANCH   3   4
HETATM    4  C   UNL     1      -0.864   2.908   0.000  1.00  0.00     0.366 C 
HETATM    5  O   UNL     1      -2.091   2.879  -0.000  1.00  0.00    -0.283 OA
ENDBRANCH   3   4
BRANCH   3   6
HETATM    6  C   UNL     1      -0.588   0.618   0.000  1.00  0.00     0.366 C 
HETATM    7  O   UNL     1      -1.785   0.340   0.000  1.00  0.00    -0.283 OA
ENDBRANCH   3   6
BRANCH   1   8
HETATM    8  O   UNL     1       2.598   1.500   0.000  1.00  0.00    -0.308 OA
HETATM    9  C   UNL     1       2.598   0.500   0.000  1.00  0.00     0.215 C 
ENDBRANCH   1   8
TORSDOF 3
