REMARK  4 active torsions:
REMARK  status: ('A' for Active; 'I' for Inactive)
REMARK    1  A    between atoms: S_2  and  C_3 
REMARK    2  A    between atoms: N_5  and  C_6 
REMARK    3  A    between atoms: C_6  and  C_7 
REMARK    4  A    between atoms: C_12  and  C_13 
ROOT
HETATM    1  C   UNL     1      -1.679   1.934  -0.046  1.00  0.00     0.163 C 
HETATM    2  C   UNL     1      -3.013   2.373   0.379  1.00  0.00     0.063 C 
HETATM    3  N   UNL     1      -4.068   2.729   0.714  1.00  0.00    -0.197 NA
ENDROOT
BRANCH   1   4
HETATM    4  C   UNL     1      -1.431   0.432  -0.056  1.00  0.00    -0.037 A 
HETATM    5  C   UNL     1      -0.111  -0.061  -0.187  1.00  0.00    -0.033 A 
HETATM    6  C   UNL     1       0.118  -1.445  -0.052  1.00  0.00     0.009 A 
HETATM    7  C   UNL     1      -0.937  -2.341   0.079  1.00  0.00     0.001 A 
HETATM    8  C   UNL     1      -2.238  -1.867   0.113  1.00  0.00     0.001 A 
HETATM    9  C   UNL     1      -2.484  -0.492   0.060  1.00  0.00     0.009 A 
BRANCH   5  10
HETATM   10  C   UNL     1       1.042   0.898  -0.374  1.00  0.00     0.160 C 
BRANCH  10  11
HETATM   11  N   UNL     1       2.168   0.326  -1.086  1.00  0.00    -0.373 N 
HETATM   12  C   UNL     1       3.409   0.736  -0.698  1.00  0.00     0.103 C 
HETATM   13  S   UNL     1       3.918   2.329  -0.723  1.00  0.00    -0.056 SA
HETATM   14  H   UNL     1       2.115  -0.667  -1.247  1.00  0.00     0.161 HD
BRANCH  12  15
HETATM   15  S   UNL     1       4.330  -0.500   0.000  1.00  0.00    -0.239 SA
HETATM   16  C   UNL     1       4.330  -1.500   0.000  1.00  0.00     0.268 C 
ENDBRANCH  12  15
ENDBRANCH  10  11
ENDBRANCH   5  10
ENDBRANCH   1   4
TORSDOF 4
