REMARK  4 active torsions:
REMARK  status: ('A' for Active; 'I' for Inactive)
REMARK    1  A    between atoms: N_4  and  C_5 
REMARK    2  A    between atoms: C_8  and  C_9 
REMARK    3  A    between atoms: C_11  and  C_12 
REMARK    4  A    between atoms: C_12  and  O_14 
ROOT
HETATM    1  C   UNL     1      -3.196  -0.011  -0.000  1.00  0.00     0.054 A 
HETATM    2  C   UNL     1      -3.910  -1.203  -0.000  1.00  0.00     0.032 A 
HETATM    3  C   UNL     1      -5.281  -1.184  -0.000  1.00  0.00     0.015 A 
HETATM    4  C   UNL     1      -6.013   0.011  -0.000  1.00  0.00    -0.019 A 
HETATM    5  C   UNL     1      -5.293   1.216  -0.000  1.00  0.00     0.015 A 
HETATM    6  C   UNL     1      -3.882   1.210  -0.000  1.00  0.00     0.032 A 
ENDROOT
BRANCH   4   7
HETATM    7  C   UNL     1      -7.484  -0.070   0.000  1.00  0.00     0.016 A 
HETATM    8  C   UNL     1      -8.479   0.890   0.000  1.00  0.00     0.021 A 
HETATM    9  C   UNL     1      -9.797   0.310   0.000  1.00  0.00     0.027 A 
HETATM   10  C   UNL     1      -9.773  -1.074   0.000  1.00  0.00     0.079 A 
HETATM   11  S   UNL     1      -8.189  -1.633   0.000  1.00  0.00    -0.083 SA
BRANCH  10  12
HETATM   12  C   UNL     1     -10.851  -2.035   0.000  1.00  0.00     0.183 C 
HETATM   13  O   UNL     1     -12.045  -1.802  -0.000  1.00  0.00    -0.646 OA
BRANCH  12  14
HETATM   14  O   UNL     1     -10.409  -3.319  -0.000  1.00  0.00    -0.772 OA
HETATM   15  H   UNL     1     -11.216  -3.862   0.000  1.00  0.00     0.167 HD
ENDBRANCH  12  14
ENDBRANCH  10  12
ENDBRANCH   4   7
BRANCH   1  16
HETATM   16  N   UNL     1      -1.790  -0.110   0.000  1.00  0.00    -0.247 N 
HETATM   17  C   UNL     1      -1.071  -1.276   0.000  1.00  0.00     0.142 A 
HETATM   18  C   UNL     1       0.241  -0.907   0.000  1.00  0.00     0.065 A 
HETATM   19  C   UNL     1       1.355  -1.816  -0.000  1.00  0.00     0.073 C 
HETATM   20  N   UNL     1       0.304   0.463   0.000  1.00  0.00    -0.163 NA
HETATM   21  N   UNL     1      -0.942   0.940   0.000  1.00  0.00     0.009 NA
ENDBRANCH   1  16
TORSDOF 4
