REMARK  1 active torsions:
REMARK  status: ('A' for Active; 'I' for Inactive)
REMARK    1  A    between atoms: N_3  and  C_4 
ROOT
HETATM    1  N   UNL     1       3.790   1.011  -0.000  1.00  0.00     0.068 N 
HETATM    2  N   UNL     1       2.652   1.066   0.000  1.00  0.00    -0.160 NA
HETATM    3  N   UNL     1       1.415   1.115  -0.000  1.00  0.00    -0.043 NA
ENDROOT
BRANCH   3   4
HETATM    4  C   UNL     1       0.857  -0.134  -0.000  1.00  0.00     0.413 C 
HETATM    5  O   UNL     1      -0.353  -0.336   0.000  1.00  0.00    -0.279 OA
ENDBRANCH   3   4
TORSDOF 1
