REMARK  3 active torsions:
REMARK  status: ('A' for Active; 'I' for Inactive)
REMARK    1  A    between atoms: S_2  and  C_3 
REMARK       I    between atoms: C_3  and  N_5 
REMARK    2  A    between atoms: N_5  and  C_6 
REMARK    3  A    between atoms: C_8  and  N_9 
ROOT
HETATM    1  C   UNL     1      -0.444   0.649   0.000  1.00  0.00     0.076 A 
HETATM    2  C   UNL     1      -1.786   1.051   0.000  1.00  0.00     0.068 A 
HETATM    3  C   UNL     1      -2.125   2.407  -0.000  1.00  0.00     0.105 A 
HETATM    4  C   UNL     1      -1.129   3.386   0.000  1.00  0.00     0.039 A 
HETATM    5  C   UNL     1       0.210   2.990  -0.000  1.00  0.00     0.047 A 
HETATM    6  C   UNL     1       0.551   1.634   0.000  1.00  0.00     0.143 A 
HETATM    7  F   UNL     1       1.855   1.340   0.000  1.00  0.00    -0.204 F 
ENDROOT
BRANCH   1   8
HETATM    8  N   UNL     1      -0.258  -0.746   0.000  1.00  0.00    -0.315 N 
HETATM    9  C   UNL     1       0.887  -1.489   0.000  1.00  0.00     0.283 C 
HETATM   10  O   UNL     1       2.032  -1.074   0.000  1.00  0.00    -0.260 OA
HETATM   11  H   UNL     1      -1.108  -1.266   0.000  1.00  0.00     0.170 HD
BRANCH   9  12
HETATM   12  S   UNL     1       0.635  -3.232   0.000  1.00  0.00    -0.073 SA
HETATM   13  C   UNL     1      -1.073  -3.656   0.000  1.00  0.00     0.100 C 
ENDBRANCH   9  12
ENDBRANCH   1   8
BRANCH   3  14
HETATM   14  N   UNL     1      -3.544   2.778  -0.000  1.00  0.00    -0.116 N 
HETATM   15  O   UNL     1      -3.825   3.985   0.000  1.00  0.00    -0.532 OA
HETATM   16  O   UNL     1      -4.378   1.860   0.000  1.00  0.00    -0.532 OA
ENDBRANCH   3  14
TORSDOF 3
