REMARK  3 active torsions:
REMARK  status: ('A' for Active; 'I' for Inactive)
REMARK    1  A    between atoms: S_2  and  C_3 
REMARK    2  A    between atoms: C_3  and  N_5 
REMARK    3  A    between atoms: N_5  and  C_6 
ROOT
HETATM    1  C   UNL     1      -0.310  -1.124   0.116  1.00  0.00     0.036 A 
HETATM    2  C   UNL     1       0.029  -2.488   0.088  1.00  0.00     0.031 A 
HETATM    3  C   UNL     1      -0.954  -3.482  -0.006  1.00  0.00     0.029 A 
HETATM    4  C   UNL     1      -2.293  -3.120  -0.071  1.00  0.00     0.072 A 
HETATM    5 CL   UNL     1      -3.501  -4.341  -0.142  1.00  0.00    -0.081 Cl
HETATM    6  C   UNL     1      -2.637  -1.772  -0.063  1.00  0.00     0.140 A 
HETATM    7  F   UNL     1      -3.923  -1.396  -0.121  1.00  0.00    -0.204 F 
HETATM    8  C   UNL     1      -1.659  -0.777   0.024  1.00  0.00     0.073 A 
ENDROOT
BRANCH   1   9
HETATM    9  N   UNL     1       0.761  -0.223   0.299  1.00  0.00    -0.342 N 
HETATM   10  H   UNL     1       1.643  -0.667   0.530  1.00  0.00     0.167 HD
BRANCH   9  11
HETATM   11  C   UNL     1       0.854   1.147   0.311  1.00  0.00     0.138 C 
HETATM   12  S   UNL     1      -0.268   2.314  -0.086  1.00  0.00    -0.053 SA
BRANCH  11  13
HETATM   13  S   UNL     1       2.452   1.628   0.886  1.00  0.00    -0.105 SA
HETATM   14  C   UNL     1       3.534   0.861  -0.339  1.00  0.00     0.098 C 
ENDBRANCH  11  13
ENDBRANCH   9  11
ENDBRANCH   1   9
TORSDOF 3
