REMARK  4 active torsions:
REMARK  status: ('A' for Active; 'I' for Inactive)
REMARK    1  A    between atoms: O_2  and  C_3 
REMARK    2  A    between atoms: C_4  and  C_6 
REMARK    3  A    between atoms: C_6  and  O_8 
REMARK    4  A    between atoms: O_8  and  C_9 
ROOT
HETATM    1  O   UNL     1       0.330  -0.774   0.676  1.00  0.00    -0.267 OA
ENDROOT
BRANCH   1   2
HETATM    2  C   UNL     1       1.308  -1.705   0.745  1.00  0.00     0.329 C 
HETATM    3  O   UNL     1       2.479  -1.488   1.013  1.00  0.00    -0.256 OA
BRANCH   2   4
HETATM    4  C   UNL     1       0.737  -3.088   0.561  1.00  0.00     0.213 C 
HETATM    5  C   UNL     1      -0.497  -3.568   0.268  1.00  0.00     0.182 C 
HETATM    6  F   UNL     1       1.694  -4.034   0.749  1.00  0.00    -0.198 F 
BRANCH   5   7
HETATM    7  O   UNL     1      -1.732  -3.000   0.000  1.00  0.00    -0.365 OA
HETATM    8  C   UNL     1      -1.732  -2.000   0.000  1.00  0.00     0.209 C 
ENDBRANCH   5   7
ENDBRANCH   2   4
ENDBRANCH   1   2
BRANCH   1   9
HETATM    9  C   UNL     1       0.533   0.618   0.641  1.00  0.00     0.147 C 
HETATM   10  C   UNL     1       1.567   1.257  -0.206  1.00  0.00     0.187 C 
HETATM   11  C   UNL     1       1.821   2.715   0.042  1.00  0.00     0.112 C 
HETATM   12  O   UNL     1       2.165   0.620  -1.071  1.00  0.00    -0.290 OA
HETATM   13  C   UNL     1       0.503   3.432   0.280  1.00  0.00     0.182 C 
HETATM   14  O   UNL     1      -0.362   2.798   1.226  1.00  0.00    -0.360 OA
HETATM   15  C   UNL     1      -0.340   1.434   1.242  1.00  0.00     0.175 C 
ENDBRANCH   1   9
TORSDOF 4
