REMARK  2 active torsions:
REMARK  status: ('A' for Active; 'I' for Inactive)
REMARK    1  A    between atoms: N_4  and  C_5 
REMARK    2  A    between atoms: C_5  and  C_6 
ROOT
HETATM    1  C   UNL     1       0.070  -1.922   0.101  1.00  0.00     0.073 C 
HETATM    2  C   UNL     1      -0.577  -0.596   0.107  1.00  0.00     0.065 A 
HETATM    3  C   UNL     1      -1.805  -0.208  -0.381  1.00  0.00     0.136 A 
HETATM    4  N   UNL     1      -1.914   1.100  -0.004  1.00  0.00    -0.276 N 
HETATM    5  N   UNL     1      -0.775   1.525   0.580  1.00  0.00     0.005 NA
HETATM    6  N   UNL     1       0.041   0.485   0.674  1.00  0.00    -0.164 NA
ENDROOT
BRANCH   4   7
HETATM    7  C   UNL     1      -2.984   2.054  -0.240  1.00  0.00     0.228 C 
BRANCH   7   8
HETATM    8  C   UNL     1      -4.348   1.486  -0.097  1.00  0.00     0.174 A 
HETATM    9  N   UNL     1      -5.411   2.083  -0.659  1.00  0.00    -0.110 NA
HETATM   10  O   UNL     1      -6.480   1.267  -0.282  1.00  0.00    -0.205 OA
HETATM   11  C   UNL     1      -5.951   0.270   0.469  1.00  0.00     0.288 A 
HETATM   12  N   UNL     1      -4.655   0.355   0.625  1.00  0.00    -0.215 NA
ENDBRANCH   7   8
ENDBRANCH   4   7
TORSDOF 2
