REMARK  4 active torsions:
REMARK  status: ('A' for Active; 'I' for Inactive)
REMARK    1  A    between atoms: N_2  and  C_3 
REMARK    2  A    between atoms: C_5  and  C_6 
REMARK    3  A    between atoms: C_6  and  O_7 
REMARK    4  A    between atoms: O_7  and  C_8 
ROOT
HETATM    1  C   UNL     1       0.816   0.203   0.693  1.00  0.00     0.220 C 
HETATM    2  C   UNL     1      -0.539   0.303  -0.048  1.00  0.00     0.042 C 
HETATM    3  C   UNL     1      -0.596   1.777   0.459  1.00  0.00     0.014 C 
HETATM    4  C   UNL     1       0.956   1.727   0.448  1.00  0.00     0.042 C 
ENDROOT
BRANCH   3   5
HETATM    5  C   UNL     1      -1.244   2.817  -0.435  1.00  0.00     0.182 C 
BRANCH   5   6
HETATM    6  O   UNL     1      -2.618   2.452  -0.621  1.00  0.00    -0.328 OA
BRANCH   6   7
HETATM    7  C   UNL     1      -3.566   3.331  -0.237  1.00  0.00     0.398 C 
HETATM    8  O   UNL     1      -4.763   3.136  -0.354  1.00  0.00    -0.276 OA
ENDBRANCH   6   7
ENDBRANCH   5   6
ENDBRANCH   3   5
BRANCH   1   9
HETATM    9  N   UNL     1       1.842  -0.465  -0.104  1.00  0.00     0.083 N 
HETATM   10  C   UNL     1       1.533  -1.880  -0.282  1.00  0.00     0.307 C 
HETATM   11  H   UNL     1       2.769  -0.386   0.317  1.00  0.00     0.315 HD
ENDBRANCH   1   9
TORSDOF 4
