REMARK  4 active torsions:
REMARK  status: ('A' for Active; 'I' for Inactive)
REMARK    1  A    between atoms: N_1  and  C_2 
REMARK    2  A    between atoms: C_2  and  C_3 
REMARK    3  A    between atoms: C_7  and  O_8 
REMARK    4  A    between atoms: O_8  and  C_9 
ROOT
HETATM    1  C   UNL     1       1.098  -0.111  -0.443  1.00  0.00     0.043 C 
HETATM    2  C   UNL     1       1.606  -1.461   0.066  1.00  0.00     0.009 C 
HETATM    3  C   UNL     1       0.376  -2.363   0.119  1.00  0.00     0.003 C 
HETATM    4  C   UNL     1      -0.839  -1.450  -0.000  1.00  0.00     0.033 C 
HETATM    5  C   UNL     1      -0.309  -0.026   0.160  1.00  0.00     0.137 C 
ENDROOT
BRANCH   1   6
HETATM    6  C   UNL     1       1.970   1.087  -0.053  1.00  0.00     0.273 C 
BRANCH   6   7
HETATM    7  N   UNL     1       3.358   0.916  -0.474  1.00  0.00     0.078 N 
HETATM    8  H   UNL     1       3.795   0.169   0.065  1.00  0.00     0.312 HD
HETATM    9  H   UNL     1       3.884   1.762  -0.254  1.00  0.00     0.312 HD
ENDBRANCH   6   7
ENDBRANCH   1   6
BRANCH   5  10
HETATM   10  O   UNL     1      -1.085   0.940  -0.556  1.00  0.00    -0.323 OA
BRANCH  10  11
HETATM   11  C   UNL     1      -2.360   1.138  -0.143  1.00  0.00     0.398 C 
HETATM   12  O   UNL     1      -3.109   1.968  -0.629  1.00  0.00    -0.276 OA
ENDBRANCH  10  11
ENDBRANCH   5  10
TORSDOF 4
