REMARK  6 active torsions:
REMARK  status: ('A' for Active; 'I' for Inactive)
REMARK    1  A    between atoms: C_2  and  O_3 
REMARK    2  A    between atoms: C_2  and  C_14 
REMARK    3  A    between atoms: O_3  and  C_4 
REMARK    4  A    between atoms: C_4  and  C_5 
REMARK    5  A    between atoms: C_5  and  O_6 
REMARK    6  A    between atoms: O_6  and  C_7 
ROOT
HETATM    1  C   UNL     1      -0.283   1.700  -0.227  1.00  0.00     0.202 C 
ENDROOT
BRANCH   1   2
HETATM    2  C   UNL     1       1.121   2.279  -0.274  1.00  0.00     0.195 C 
BRANCH   2   3
HETATM    3  O   UNL     1       2.045   1.268  -0.725  1.00  0.00    -0.384 OA
BRANCH   3   4
HETATM    4  C   UNL     1       2.566   0.400   0.291  1.00  0.00     0.121 C 
HETATM    5  C   UNL     1       3.865  -0.180  -0.261  1.00  0.00     0.040 C 
BRANCH   4   6
HETATM    6  C   UNL     1       1.593  -0.676   0.731  1.00  0.00     0.014 A 
HETATM    7  C   UNL     1       0.533  -1.276  -0.174  1.00  0.00     0.007 A 
HETATM    8  C   UNL     1       1.673  -2.126   0.278  1.00  0.00     0.007 A 
ENDBRANCH   4   6
ENDBRANCH   3   4
ENDBRANCH   2   3
ENDBRANCH   1   2
BRANCH   1   9
HETATM    9  O   UNL     1      -1.322   2.659  -0.157  1.00  0.00    -0.343 OA
BRANCH   9  10
HETATM   10  C   UNL     1      -2.606   2.089  -0.163  1.00  0.00     0.140 C 
HETATM   11  C   UNL     1      -3.733   2.960   0.221  1.00  0.00     0.205 C 
HETATM   12  C   UNL     1      -4.937   2.367   0.296  1.00  0.00     0.057 C 
HETATM   13  O   UNL     1      -3.434   4.161   0.456  1.00  0.00    -0.286 OA
HETATM   14  C   UNL     1      -5.185   0.923   0.017  1.00  0.00     0.206 C 
HETATM   15  O   UNL     1      -4.083   0.167  -0.488  1.00  0.00    -0.356 OA
HETATM   16  C   UNL     1      -2.870   0.805  -0.489  1.00  0.00     0.175 C 
ENDBRANCH   9  10
ENDBRANCH   1   9
TORSDOF 6
