REMARK  3 active torsions:
REMARK  status: ('A' for Active; 'I' for Inactive)
REMARK    1  A    between atoms: S_2  and  C_3 
REMARK    2  A    between atoms: C_3  and  C_5 
REMARK    3  A    between atoms: C_5  and  C_6 
ROOT
HETATM    1  C   UNL     1       1.660  -0.682  -0.718  1.00  0.00     0.155 C 
HETATM    2  O   UNL     1       1.754   0.268  -1.485  1.00  0.00    -0.288 OA
ENDROOT
BRANCH   1   3
HETATM    3  S   UNL     1       3.098  -1.366   0.000  1.00  0.00    -0.232 SA
HETATM    4  C   UNL     1       3.098  -2.366   0.000  1.00  0.00     0.270 C 
ENDBRANCH   1   3
BRANCH   1   5
HETATM    5  C   UNL     1       0.338  -1.336  -0.346  1.00  0.00     0.092 C 
BRANCH   5   6
HETATM    6  C   UNL     1      -0.840  -0.417  -0.517  1.00  0.00    -0.007 A 
HETATM    7  C   UNL     1      -1.171   0.600   0.544  1.00  0.00     0.005 A 
HETATM    8  C   UNL     1      -2.070  -0.588   0.338  1.00  0.00     0.005 A 
ENDBRANCH   5   6
ENDBRANCH   1   5
TORSDOF 3
