REMARK  12 active torsions:
REMARK  status: ('A' for Active; 'I' for Inactive)
REMARK    1  A    between atoms: C_2  and  C_4 
REMARK    2  A    between atoms: C_4  and  C_5 
REMARK    3  A    between atoms: C_5  and  C_7 
REMARK    4  A    between atoms: C_7  and  O_8 
REMARK    5  A    between atoms: C_7  and  C_9 
REMARK    6  A    between atoms: C_9  and  C_11 
REMARK    7  A    between atoms: C_11  and  C_12 
REMARK    8  A    between atoms: C_11  and  C_28 
REMARK    9  A    between atoms: C_12  and  C_13 
REMARK   10  A    between atoms: C_13  and  N_14 
REMARK   11  A    between atoms: C_18  and  C_19 
REMARK   12  A    between atoms: C_28  and  C_30 
ROOT
HETATM    1  C   UNL     1       0.716  -2.028  -0.933  1.00  0.00     0.135 C 
ENDROOT
BRANCH   1   2
HETATM    2  C   UNL     1       0.000  -3.000   0.000  1.00  0.00     0.174 C 
HETATM    3  O   UNL     1      -0.862  -2.413   0.703  1.00  0.00    -0.294 OA
BRANCH   2   4
HETATM    4  C   UNL     1       0.000  -4.000   0.000  1.00  0.00     0.258 C 
BRANCH   4   5
HETATM    5  C   UNL     1      -0.552  -4.491   1.450  1.00  0.00     0.169 C 
HETATM    6  O   UNL     1       0.063  -4.402   2.516  1.00  0.00    -0.294 OA
BRANCH   5   7
HETATM    7  C   UNL     1      -1.828  -5.254   1.323  1.00  0.00     0.159 C 
BRANCH   7   8
HETATM    8  C   UNL     1      -1.732  -6.000   0.000  1.00  0.00     0.130 C 
HETATM    9  C   UNL     1      -1.732  -7.000   0.000  1.00  0.00     0.091 C 
HETATM   10  O   UNL     1      -1.890  -5.317  -1.034  1.00  0.00    -0.298 OA
ENDBRANCH   7   8
ENDBRANCH   5   7
ENDBRANCH   4   5
BRANCH   4  11
HETATM   11  O   UNL     1       1.526  -4.016   0.449  1.00  0.00    -0.380 OA
HETATM   12  H   UNL     1       1.544  -3.831   1.428  1.00  0.00     0.211 HD
ENDBRANCH   4  11
ENDBRANCH   2   4
ENDBRANCH   1   2
BRANCH   1  13
HETATM   13  C   UNL     1       0.701  -2.458  -2.400  1.00  0.00     0.042 C 
BRANCH  13  14
HETATM   14  C   UNL     1       1.960  -3.205  -2.939  1.00  0.00     0.149 C 
BRANCH  14  15
HETATM   15  N   UNL     1       2.935  -3.786  -2.056  1.00  0.00    -0.259 N 
HETATM   16  C   UNL     1       4.061  -3.289  -1.387  1.00  0.00     0.175 A 
HETATM   17  N   UNL     1       4.681  -4.352  -0.877  1.00  0.00    -0.142 NA
HETATM   18  N   UNL     1       3.975  -5.466  -1.229  1.00  0.00     0.018 NA
HETATM   19  N   UNL     1       2.927  -5.139  -1.974  1.00  0.00    -0.003 NA
BRANCH  16  20
HETATM   20  C   UNL     1       4.391  -1.918  -1.164  1.00  0.00     0.081 C 
HETATM   21  C   UNL     1       3.599  -0.724  -1.627  1.00  0.00     0.261 C 
HETATM   22  N   UNL     1       3.638   0.387  -0.786  1.00  0.00    -0.328 N 
HETATM   23  O   UNL     1       2.991  -0.748  -2.684  1.00  0.00    -0.267 OA
HETATM   24  C   UNL     1       4.721   0.620   0.021  1.00  0.00     0.100 C 
HETATM   25  C   UNL     1       2.770   1.534  -1.045  1.00  0.00     0.159 C 
HETATM   26  C   UNL     1       5.732  -0.254   0.015  1.00  0.00    -0.045 C 
HETATM   27  C   UNL     1       5.479  -1.614  -0.422  1.00  0.00     0.029 C 
HETATM   28  C   UNL     1       7.101   0.276   0.249  1.00  0.00     0.049 C 
ENDBRANCH  16  20
ENDBRANCH  14  15
ENDBRANCH  13  14
ENDBRANCH   1  13
BRANCH   1  29
HETATM   29  C   UNL     1       0.277  -0.578  -0.575  1.00  0.00     0.174 C 
HETATM   30  O   UNL     1       0.895  -0.065   0.370  1.00  0.00    -0.291 OA
BRANCH  29  31
HETATM   31  C   UNL     1      -1.017   0.066  -1.076  1.00  0.00     0.060 C 
HETATM   32  C   UNL     1      -1.203   1.488  -1.048  1.00  0.00     0.185 C 
HETATM   33  C   UNL     1      -2.548   1.917  -1.128  1.00  0.00     0.056 C 
HETATM   34  O   UNL     1      -0.285   2.371  -0.957  1.00  0.00    -0.287 OA
HETATM   35  C   UNL     1      -3.634   1.057  -1.298  1.00  0.00     0.004 C 
HETATM   36  C   UNL     1      -3.408  -0.296  -1.456  1.00  0.00     0.001 C 
HETATM   37  C   UNL     1      -2.108  -0.788  -1.355  1.00  0.00     0.019 C 
ENDBRANCH  29  31
ENDBRANCH   1  29
TORSDOF 12
