REMARK  4 active torsions:
REMARK  status: ('A' for Active; 'I' for Inactive)
REMARK    1  A    between atoms: C_4  and  N_5 
REMARK    2  A    between atoms: C_6  and  C_7 
REMARK    3  A    between atoms: C_7  and  O_8 
REMARK    4  A    between atoms: O_8  and  C_9 
ROOT
HETATM    1  C   UNL     1       5.196   0.000   0.000  1.00  0.00     0.014 A 
HETATM    2  C   UNL     1       5.196   1.000   0.000  1.00  0.00     0.014 A 
HETATM    3  C   UNL     1       4.363   1.417  -1.124  1.00  0.00     0.019 A 
HETATM    4  C   UNL     1       3.464   1.000   0.000  1.00  0.00     0.039 A 
HETATM    5  C   UNL     1       3.464   0.000   0.000  1.00  0.00     0.037 A 
ENDROOT
BRANCH   5   6
HETATM    6  C   UNL     1       2.714  -1.063  -1.040  1.00  0.00     0.179 C 
BRANCH   6   7
HETATM    7  O   UNL     1       1.322  -0.785  -1.380  1.00  0.00    -0.328 OA
BRANCH   7   8
HETATM    8  C   UNL     1       0.291  -1.277  -0.642  1.00  0.00     0.398 C 
HETATM    9  O   UNL     1      -0.862  -0.881  -0.693  1.00  0.00    -0.276 OA
ENDBRANCH   7   8
ENDBRANCH   6   7
ENDBRANCH   5   6
BRANCH   4  10
HETATM   10  N   UNL     1       2.013   1.501  -0.541  1.00  0.00    -0.331 N 
HETATM   11  H   UNL     1       1.823   2.464  -0.244  1.00  0.00     0.118 HD
HETATM   12  H   UNL     1       1.251   0.968  -0.119  1.00  0.00     0.118 HD
ENDBRANCH   4  10
TORSDOF 4
