REMARK  4 active torsions:
REMARK  status: ('A' for Active; 'I' for Inactive)
REMARK    1  A    between atoms: O_2  and  C_3 
REMARK    2  A    between atoms: C_5  and  N_6 
REMARK    3  A    between atoms: C_13  and  C_14 
REMARK    4  A    between atoms: C_14  and  O_16 
ROOT
HETATM    1  C   UNL     1       0.310  -1.202   0.035  1.00  0.00     0.094 A 
HETATM    2  C   UNL     1      -1.110  -1.361   0.066  1.00  0.00     0.077 A 
HETATM    3  C   UNL     1      -1.757  -0.150  -0.013  1.00  0.00     0.098 A 
HETATM    4  S   UNL     1      -0.686   1.160  -0.067  1.00  0.00    -0.061 SA
HETATM    5  C   UNL     1       0.693   0.132  -0.003  1.00  0.00     0.113 A 
ENDROOT
BRANCH   3   6
HETATM    6  N   UNL     1      -3.134   0.056  -0.043  1.00  0.00    -0.240 N 
HETATM    7  N   UNL     1      -3.666   1.299  -0.101  1.00  0.00     0.010 NA
HETATM    8  N   UNL     1      -4.989   1.190  -0.080  1.00  0.00    -0.163 NA
HETATM    9  C   UNL     1      -5.307  -0.137  -0.020  1.00  0.00     0.065 A 
HETATM   10  C   UNL     1      -4.147  -0.875  -0.017  1.00  0.00     0.143 A 
HETATM   11  C   UNL     1      -6.709  -0.593   0.031  1.00  0.00     0.073 C 
ENDBRANCH   3   6
BRANCH   1  12
HETATM   12  O   UNL     1       1.265  -2.167   0.049  1.00  0.00    -0.354 OA
HETATM   13  C   UNL     1       0.812  -3.502  -0.115  1.00  0.00     0.210 C 
ENDBRANCH   1  12
BRANCH   5  14
HETATM   14  C   UNL     1       2.041   0.663  -0.004  1.00  0.00     0.186 C 
HETATM   15  O   UNL     1       3.099   0.050  -0.007  1.00  0.00    -0.646 OA
BRANCH  14  16
HETATM   16  O   UNL     1       2.083   2.017   0.006  1.00  0.00    -0.772 OA
HETATM   17  H   UNL     1       3.043   2.206   0.015  1.00  0.00     0.167 HD
ENDBRANCH  14  16
ENDBRANCH   5  14
TORSDOF 4
