REMARK  5 active torsions:
REMARK  status: ('A' for Active; 'I' for Inactive)
REMARK    1  A    between atoms: C_2  and  S_3 
REMARK    2  A    between atoms: C_2  and  C_6 
REMARK    3  A    between atoms: S_3  and  C_4 
REMARK    4  A    between atoms: C_6  and  O_8 
REMARK    5  A    between atoms: O_8  and  C_9 
ROOT
HETATM    1  C   UNL     1       1.137  -2.072   0.137  1.00  0.00     0.142 C 
HETATM    2  C   UNL     1       2.553  -2.655   0.058  1.00  0.00     0.041 C 
ENDROOT
BRANCH   1   3
HETATM    3  C   UNL     1      -0.011  -3.127   0.025  1.00  0.00     0.080 C 
HETATM    4  C   UNL     1      -1.301  -2.625   0.690  1.00  0.00     0.024 C 
BRANCH   3   5
HETATM    5  S   UNL     1       0.372  -4.761   0.773  1.00  0.00    -0.094 SA
BRANCH   5   6
HETATM    6  C   UNL     1      -0.784  -5.761  -0.094  1.00  0.00     0.304 C 
HETATM    7  O   UNL     1      -0.796  -6.977   0.032  1.00  0.00    -0.295 OA
ENDBRANCH   5   6
ENDBRANCH   3   5
ENDBRANCH   1   3
BRANCH   1   8
HETATM    8  O   UNL     1       1.067  -1.179  -0.995  1.00  0.00    -0.313 OA
BRANCH   8   9
HETATM    9  C   UNL     1       0.213  -0.128  -0.780  1.00  0.00     0.268 A 
HETATM   10  N   UNL     1       0.476   0.713   0.229  1.00  0.00    -0.219 NA
HETATM   11  C   UNL     1      -0.406   1.716   0.389  1.00  0.00     0.122 A 
HETATM   12  C   UNL     1      -1.521   1.880  -0.400  1.00  0.00     0.039 A 
HETATM   13  C   UNL     1      -1.684   0.953  -1.403  1.00  0.00     0.122 A 
HETATM   14  N   UNL     1      -0.827  -0.057  -1.623  1.00  0.00    -0.219 NA
ENDBRANCH   8   9
ENDBRANCH   1   8
TORSDOF 5
