REMARK  15 active torsions:
REMARK  status: ('A' for Active; 'I' for Inactive)
REMARK    1  A    between atoms: O_2  and  C_3 
REMARK    2  A    between atoms: C_5  and  O_6 
REMARK    3  A    between atoms: C_10  and  N_11 
REMARK       I    between atoms: N_11  and  C_12 
REMARK    4  A    between atoms: C_12  and  O_14 
REMARK    5  A    between atoms: O_14  and  C_15 
REMARK    6  A    between atoms: C_15  and  C_16 
REMARK    7  A    between atoms: C_15  and  C_22 
REMARK    8  A    between atoms: C_16  and  C_18 
REMARK    9  A    between atoms: C_18  and  C_19 
REMARK   10  A    between atoms: C_22  and  C_24 
REMARK   11  A    between atoms: C_24  and  C_25 
REMARK   12  A    between atoms: C_24  and  C_28 
REMARK   13  A    between atoms: C_25  and  C_26 
REMARK   14  A    between atoms: C_26  and  O_27 
REMARK   15  A    between atoms: C_28  and  C_30 
ROOT
HETATM    1  C   UNL     1      -2.800  -3.496  -0.655  1.00  0.00     0.273 C 
ENDROOT
BRANCH   1   2
HETATM    2  O   UNL     1      -1.657  -3.686   0.194  1.00  0.00    -0.283 OA
BRANCH   2   3
HETATM    3  C   UNL     1      -0.704  -2.727   0.353  1.00  0.00     0.366 C 
HETATM    4  N   UNL     1      -0.837  -1.609  -0.457  1.00  0.00    -0.299 N 
HETATM    5  H   UNL     1      -1.677  -1.067  -0.244  1.00  0.00     0.171 HD
HETATM    6  O   UNL     1       0.215  -2.895   1.138  1.00  0.00    -0.238 OA
BRANCH   4   7
HETATM    7  C   UNL     1       0.278  -0.808  -0.841  1.00  0.00     0.086 C 
HETATM    8  C   UNL     1       1.572  -1.333  -1.015  1.00  0.00     0.096 C 
HETATM    9  C   UNL     1       2.664  -0.460  -1.081  1.00  0.00     0.095 C 
HETATM   10 CL   UNL     1       1.852  -3.020  -1.335  1.00  0.00    -0.079 Cl
HETATM   11  C   UNL     1       2.480   0.923  -1.105  1.00  0.00     0.077 C 
HETATM   12  C   UNL     1       1.192   1.447  -1.118  1.00  0.00     0.095 C 
HETATM   13  C   UNL     1       0.094   0.575  -1.043  1.00  0.00     0.096 C 
HETATM   14 CL   UNL     1      -1.488   1.232  -1.319  1.00  0.00    -0.079 Cl
BRANCH   9  15
HETATM   15  O   UNL     1       3.937  -0.956  -1.188  1.00  0.00    -0.354 OA
HETATM   16  C   UNL     1       4.630  -0.798   0.051  1.00  0.00     0.210 C 
ENDBRANCH   9  15
BRANCH  12  17
HETATM   17  O   UNL     1       0.940   2.787  -1.260  1.00  0.00    -0.354 OA
HETATM   18  C   UNL     1       1.838   3.646  -0.565  1.00  0.00     0.210 C 
ENDBRANCH  12  17
ENDBRANCH   4   7
ENDBRANCH   2   3
ENDBRANCH   1   2
BRANCH   1  19
HETATM   19  C   UNL     1      -3.817  -2.732   0.151  1.00  0.00     0.170 C 
HETATM   20  O   UNL     1      -3.899  -2.855   1.378  1.00  0.00    -0.294 OA
BRANCH  19  21
HETATM   21  C   UNL     1      -4.574  -1.625  -0.538  1.00  0.00     0.159 C 
BRANCH  21  22
HETATM   22  C   UNL     1      -4.176  -0.299   0.061  1.00  0.00     0.130 C 
HETATM   23  C   UNL     1      -5.069   0.883  -0.200  1.00  0.00     0.091 C 
HETATM   24  O   UNL     1      -3.104  -0.164   0.661  1.00  0.00    -0.298 OA
ENDBRANCH  21  22
ENDBRANCH  19  21
ENDBRANCH   1  19
BRANCH   1  25
HETATM   25  C   UNL     1      -3.237  -4.814  -1.273  1.00  0.00     0.175 C 
HETATM   26  O   UNL     1      -3.122  -4.922  -2.506  1.00  0.00    -0.294 OA
BRANCH  25  27
HETATM   27  C   UNL     1      -3.559  -6.036  -0.419  1.00  0.00     0.135 C 
BRANCH  27  28
HETATM   28  C   UNL     1      -2.264  -6.686   0.115  1.00  0.00     0.046 C 
BRANCH  28  29
HETATM   29  C   UNL     1      -1.242  -6.996  -0.977  1.00  0.00     0.165 C 
BRANCH  29  30
HETATM   30  O   UNL     1      -0.130  -7.691  -0.416  1.00  0.00    -0.401 OA
HETATM   31  H   UNL     1       0.223  -7.125   0.293  1.00  0.00     0.209 HD
ENDBRANCH  29  30
ENDBRANCH  28  29
ENDBRANCH  27  28
BRANCH  27  32
HETATM   32  C   UNL     1      -4.565  -5.800   0.709  1.00  0.00     0.174 C 
HETATM   33  O   UNL     1      -4.285  -6.070   1.881  1.00  0.00    -0.291 OA
BRANCH  32  34
HETATM   34  C   UNL     1      -5.906  -5.166   0.417  1.00  0.00     0.060 A 
HETATM   35  C   UNL     1      -6.614  -5.356  -0.797  1.00  0.00     0.185 A 
HETATM   36  C   UNL     1      -7.809  -4.610  -0.909  1.00  0.00     0.056 A 
HETATM   37  O   UNL     1      -6.268  -6.136  -1.741  1.00  0.00    -0.287 OA
HETATM   38  C   UNL     1      -8.272  -3.722   0.068  1.00  0.00     0.004 A 
HETATM   39  C   UNL     1      -7.562  -3.568   1.244  1.00  0.00     0.001 A 
HETATM   40  C   UNL     1      -6.401  -4.311   1.429  1.00  0.00     0.019 A 
ENDBRANCH  32  34
ENDBRANCH  27  32
ENDBRANCH  25  27
ENDBRANCH   1  25
TORSDOF 15
