REMARK  5 active torsions:
REMARK  status: ('A' for Active; 'I' for Inactive)
REMARK    1  A    between atoms: O_2  and  C_3 
REMARK    2  A    between atoms: C_3  and  C_5 
REMARK    3  A    between atoms: C_5  and  C_6 
REMARK    4  A    between atoms: C_6  and  C_7 
REMARK    5  A    between atoms: C_7  and  S_9 
ROOT
HETATM    1  C   UNL     1       2.928   2.158   1.864  1.00  0.00     0.119 C 
ENDROOT
BRANCH   1   2
HETATM    2  C   UNL     1       4.317   1.964   1.290  1.00  0.00     0.258 C 
HETATM    3  O   UNL     1       5.341   2.217   1.914  1.00  0.00    -0.265 OA
BRANCH   2   4
HETATM    4  O   UNL     1       4.330   1.500   0.000  1.00  0.00    -0.326 OA
HETATM    5  C   UNL     1       4.330   0.500   0.000  1.00  0.00     0.213 C 
ENDBRANCH   2   4
ENDBRANCH   1   2
BRANCH   1   6
HETATM    6  C   UNL     1       1.999   2.942   0.938  1.00  0.00     0.100 C 
BRANCH   6   7
HETATM    7  C   UNL     1       0.755   2.144   0.611  1.00  0.00     0.186 C 
HETATM    8  O   UNL     1      -0.326   2.338   1.157  1.00  0.00    -0.286 OA
BRANCH   7   9
HETATM    9  S   UNL     1       0.956   0.898  -0.611  1.00  0.00    -0.097 SA
HETATM   10  C   UNL     1      -0.166  -0.360   0.032  1.00  0.00     0.098 C 
ENDBRANCH   7   9
ENDBRANCH   6   7
ENDBRANCH   1   6
TORSDOF 5
