REMARK  8 active torsions:
REMARK  status: ('A' for Active; 'I' for Inactive)
REMARK    1  A    between atoms: S_2  and  C_3 
REMARK    2  A    between atoms: C_3  and  C_4 
REMARK    3  A    between atoms: C_3  and  C_6 
REMARK    4  A    between atoms: C_4  and  O_5 
REMARK    5  A    between atoms: C_6  and  C_7 
REMARK    6  A    between atoms: C_7  and  C_8 
REMARK    7  A    between atoms: C_8  and  C_9 
REMARK    8  A    between atoms: C_9  and  C_10 
ROOT
HETATM    1  C   UNL     1       1.770  -3.005  -0.697  1.00  0.00     0.017 C 
ENDROOT
BRANCH   1   2
HETATM    2  C   UNL     1       3.094  -3.792  -0.819  1.00  0.00     0.070 C 
BRANCH   2   3
HETATM    3  S   UNL     1       3.262  -5.015   0.550  1.00  0.00    -0.167 SA
HETATM    4  C   UNL     1       2.080  -6.267  -0.022  1.00  0.00     0.090 C 
ENDBRANCH   2   3
BRANCH   2   5
HETATM    5  C   UNL     1       4.379  -2.949  -0.862  1.00  0.00     0.179 C 
BRANCH   5   6
HETATM    6  O   UNL     1       4.348  -2.023  -1.946  1.00  0.00    -0.400 OA
HETATM    7  H   UNL     1       5.161  -1.491  -1.880  1.00  0.00     0.209 HD
ENDBRANCH   5   6
ENDBRANCH   2   5
ENDBRANCH   1   2
BRANCH   1   8
HETATM    8  C   UNL     1       1.850  -1.612  -0.059  1.00  0.00     0.001 C 
BRANCH   8   9
HETATM    9  C   UNL     1       0.449  -1.054   0.218  1.00  0.00     0.003 C 
BRANCH   9  10
HETATM   10  C   UNL     1       0.452   0.472   0.309  1.00  0.00     0.034 C 
BRANCH  10  11
HETATM   11  C   UNL     1      -0.912   0.998   0.632  1.00  0.00     0.145 A 
HETATM   12  C   UNL     1      -2.020   0.988  -0.388  1.00  0.00     0.200 A 
HETATM   13  O   UNL     1      -1.279   2.180  -0.089  1.00  0.00    -0.381 OA
ENDBRANCH  10  11
ENDBRANCH   9  10
ENDBRANCH   8   9
ENDBRANCH   1   8
TORSDOF 8
