REMARK  4 active torsions:
REMARK  status: ('A' for Active; 'I' for Inactive)
REMARK    1  A    between atoms: N_1  and  C_2 
REMARK    2  A    between atoms: C_8  and  C_9 
REMARK    3  A    between atoms: C_9  and  O_10 
REMARK    4  A    between atoms: O_10  and  C_11 
ROOT
HETATM    1  C   UNL     1       4.453  -1.064  -0.072  1.00  0.00     0.014 A 
HETATM    2  C   UNL     1       5.578  -1.896  -0.184  1.00  0.00     0.027 A 
HETATM    3  C   UNL     1       5.455  -3.283  -0.121  1.00  0.00     0.044 A 
HETATM    4  C   UNL     1       4.194  -3.845   0.008  1.00  0.00     0.117 A 
HETATM    5  F   UNL     1       4.071  -5.178   0.060  1.00  0.00    -0.206 F 
HETATM    6  C   UNL     1       3.056  -3.048   0.067  1.00  0.00     0.053 A 
HETATM    7  C   UNL     1       3.168  -1.648   0.012  1.00  0.00    -0.010 A 
ENDROOT
BRANCH   7   8
HETATM    8  C   UNL     1       1.940  -0.755   0.052  1.00  0.00     0.216 C 
BRANCH   8   9
HETATM    9  O   UNL     1       0.721  -1.476   0.241  1.00  0.00    -0.341 OA
BRANCH   9  10
HETATM   10  C   UNL     1      -0.451  -0.743   0.106  1.00  0.00     0.136 C 
HETATM   11  C   UNL     1      -0.541   0.758   0.148  1.00  0.00     0.186 C 
HETATM   12  C   UNL     1      -1.857   1.379  -0.237  1.00  0.00     0.112 C 
HETATM   13  O   UNL     1       0.426   1.470   0.415  1.00  0.00    -0.290 OA
HETATM   14  C   UNL     1      -2.985   0.478   0.212  1.00  0.00     0.182 C 
HETATM   15  O   UNL     1      -2.851  -0.854  -0.283  1.00  0.00    -0.360 OA
HETATM   16  C   UNL     1      -1.600  -1.389  -0.128  1.00  0.00     0.175 C 
ENDBRANCH   9  10
ENDBRANCH   8   9
ENDBRANCH   7   8
BRANCH   1  17
HETATM   17  N   UNL     1       4.625   0.315  -0.278  1.00  0.00    -0.302 NA
HETATM   18  H   UNL     1       5.552   0.655  -0.037  1.00  0.00     0.124 HD
HETATM   19  H   UNL     1       3.900   0.908   0.114  1.00  0.00     0.124 HD
ENDBRANCH   1  17
TORSDOF 4
