REMARK  2 active torsions:
REMARK  status: ('A' for Active; 'I' for Inactive)
REMARK    1  A    between atoms: S_2  and  C_3 
REMARK       I    between atoms: C_3  and  N_5 
REMARK    2  A    between atoms: N_5  and  C_6 
ROOT
HETATM    1  C   UNL     1       0.055   0.203   0.124  1.00  0.00     0.037 A 
HETATM    2  C   UNL     1       1.368  -0.269   0.255  1.00  0.00     0.036 A 
HETATM    3  C   UNL     1       1.657  -1.639   0.191  1.00  0.00    -0.058 A 
HETATM    4  C   UNL     1       3.077  -2.113   0.299  1.00  0.00     0.048 C 
HETATM    5  C   UNL     1       0.611  -2.540  -0.030  1.00  0.00     0.030 A 
HETATM    6  C   UNL     1      -0.699  -2.073  -0.137  1.00  0.00     0.036 A 
HETATM    7 CL   UNL     1      -1.972  -3.195  -0.435  1.00  0.00    -0.084 Cl
HETATM    8  C   UNL     1      -0.986  -0.710  -0.044  1.00  0.00     0.053 A 
ENDROOT
BRANCH   1   9
HETATM    9  N   UNL     1      -0.116   1.600   0.075  1.00  0.00    -0.318 N 
HETATM   10  C   UNL     1      -1.296   2.297   0.049  1.00  0.00     0.283 C 
HETATM   11  O   UNL     1      -2.425   1.891   0.282  1.00  0.00    -0.260 OA
HETATM   12  H   UNL     1       0.716   2.151  -0.057  1.00  0.00     0.169 HD
BRANCH  10  13
HETATM   13  S   UNL     1      -1.022   3.952  -0.481  1.00  0.00    -0.073 SA
HETATM   14  C   UNL     1       0.073   4.571   0.811  1.00  0.00     0.100 C 
ENDBRANCH  10  13
ENDBRANCH   1   9
TORSDOF 2
