REMARK  1 active torsions:
REMARK  status: ('A' for Active; 'I' for Inactive)
REMARK    1  A    between atoms: S_2  and  C_3 
ROOT
HETATM    1  C   UNL     1      -0.294   0.833   0.222  1.00  0.00     0.181 C 
HETATM    2  C   UNL     1      -1.571   1.584  -0.036  1.00  0.00     0.104 C 
HETATM    3  O   UNL     1      -0.239  -0.390   0.290  1.00  0.00    -0.286 OA
ENDROOT
BRANCH   1   4
HETATM    4  S   UNL     1       1.106   1.858   0.501  1.00  0.00    -0.097 SA
HETATM    5  C   UNL     1       2.430   0.745  -0.016  1.00  0.00     0.098 C 
ENDBRANCH   1   4
TORSDOF 1
