REMARK  3 active torsions:
REMARK  status: ('A' for Active; 'I' for Inactive)
REMARK    1  A    between atoms: N_4  and  C_5 
REMARK    2  A    between atoms: C_5  and  C_6 
REMARK       I    between atoms: N_10  and  C_11 
REMARK    3  A    between atoms: C_11  and  C_13 
ROOT
HETATM    1  C   UNL     1       3.199   2.548  -0.190  1.00  0.00     0.107 C 
HETATM    2  C   UNL     1       2.122   3.588   0.168  1.00  0.00     0.029 C 
HETATM    3  C   UNL     1       2.705   4.888  -0.336  1.00  0.00     0.022 C 
HETATM    4  C   UNL     1       4.189   4.735  -0.047  1.00  0.00     0.127 C 
HETATM    5  N   UNL     1       4.456   3.303  -0.035  1.00  0.00    -0.342 N 
HETATM    6  C   UNL     1       5.670   2.659  -0.250  1.00  0.00     0.254 C 
HETATM    7  O   UNL     1       5.673   1.455  -0.532  1.00  0.00    -0.267 OA
ENDROOT
BRANCH   1   8
HETATM    8  C   UNL     1       3.050   1.265   0.658  1.00  0.00     0.171 C 
BRANCH   8   9
HETATM    9  N   UNL     1       1.772   0.631   0.375  1.00  0.00    -0.281 N 
HETATM   10  C   UNL     1       0.567   0.957   0.934  1.00  0.00     0.136 C 
HETATM   11  C   UNL     1      -0.331   0.672  -0.072  1.00  0.00     0.065 C 
HETATM   12  C   UNL     1      -1.734   1.092  -0.229  1.00  0.00     0.073 C 
HETATM   13  N   UNL     1       0.316   0.006  -1.075  1.00  0.00    -0.164 NA
HETATM   14  N   UNL     1       1.607  -0.041  -0.775  1.00  0.00     0.004 NA
ENDBRANCH   8   9
ENDBRANCH   1   8
BRANCH   6  15
HETATM   15  C   UNL     1       7.019   3.317  -0.133  1.00  0.00     0.032 A 
HETATM   16  C   UNL     1       8.133   2.470  -0.315  1.00  0.00     0.017 A 
HETATM   17  C   UNL     1       9.444   2.951  -0.236  1.00  0.00     0.001 A 
HETATM   18  C   UNL     1       9.670   4.294   0.020  1.00  0.00     0.000 A 
HETATM   19  C   UNL     1       8.589   5.149   0.215  1.00  0.00     0.001 A 
HETATM   20  C   UNL     1       7.276   4.661   0.154  1.00  0.00     0.017 A 
ENDBRANCH   6  15
TORSDOF 3
