REMARK  3 active torsions:
REMARK  status: ('A' for Active; 'I' for Inactive)
REMARK    1  A    between atoms: C_6  and  C_7 
REMARK    2  A    between atoms: C_7  and  O_8 
REMARK    3  A    between atoms: O_8  and  C_9 
ROOT
HETATM    1  C   UNL     1       0.334  -2.115  -0.000  1.00  0.00     0.077 C 
HETATM    2  C   UNL     1      -0.362  -0.835   0.000  1.00  0.00     0.057 A 
HETATM    3  O   UNL     1      -1.718  -0.995   0.000  1.00  0.00    -0.327 OA
HETATM    4  C   UNL     1      -2.277   0.225   0.000  1.00  0.00     0.142 A 
HETATM    5  C   UNL     1      -1.300   1.187   0.000  1.00  0.00     0.036 A 
HETATM    6  C   UNL     1      -0.023   0.539   0.000  1.00  0.00    -0.003 A 
ENDROOT
BRANCH   6   7
HETATM    7  C   UNL     1       1.349   1.117  -0.000  1.00  0.00     0.219 C 
BRANCH   7   8
HETATM    8  O   UNL     1       1.690   2.504   0.000  1.00  0.00    -0.324 OA
BRANCH   8   9
HETATM    9  C   UNL     1       0.996   3.644   0.000  1.00  0.00     0.398 C 
HETATM   10  O   UNL     1      -0.202   3.838  -0.000  1.00  0.00    -0.276 OA
ENDBRANCH   8   9
ENDBRANCH   7   8
ENDBRANCH   6   7
TORSDOF 3
