REMARK  3 active torsions:
REMARK  status: ('A' for Active; 'I' for Inactive)
REMARK    1  A    between atoms: C_4  and  C_5 
REMARK    2  A    between atoms: C_11  and  S_12 
REMARK    3  A    between atoms: S_12  and  C_13 
ROOT
HETATM    1  C   UNL     1      -0.866  -1.500   0.000  1.00  0.00     0.049 C 
HETATM    2  C   UNL     1      -0.866  -0.500   0.000  1.00  0.00    -0.048 C 
HETATM    3  C   UNL     1      -1.552  -0.144   1.160  1.00  0.00    -0.003 C 
HETATM    4  C   UNL     1      -1.683   1.172   1.257  1.00  0.00     0.017 C 
HETATM    5  C   UNL     1      -0.440   1.834   1.346  1.00  0.00    -0.010 C 
HETATM    6  C   UNL     1       0.476   1.529   0.351  1.00  0.00     0.016 C 
HETATM    7  C   UNL     1       0.221   0.381  -0.398  1.00  0.00     0.013 C 
ENDROOT
BRANCH   4   8
HETATM    8  C   UNL     1      -2.598   1.500   0.000  1.00  0.00    -0.035 A 
HETATM    9  C   UNL     1      -3.598   1.500   0.000  1.00  0.00     0.016 A 
HETATM   10  C   UNL     1      -2.598   2.500   0.000  1.00  0.00     0.016 A 
HETATM   11  C   UNL     1      -2.490   0.651  -1.485  1.00  0.00     0.016 C 
ENDBRANCH   4   8
BRANCH   7  12
HETATM   12  S   UNL     1       1.399  -0.071  -1.685  1.00  0.00    -0.061 SA
BRANCH  12  13
HETATM   13  C   UNL     1       2.849  -0.266  -0.696  1.00  0.00     0.309 C 
HETATM   14  O   UNL     1       3.817  -0.903  -1.116  1.00  0.00    -0.295 OA
ENDBRANCH  12  13
ENDBRANCH   7  12
TORSDOF 3
