REMARK  5 active torsions:
REMARK  status: ('A' for Active; 'I' for Inactive)
REMARK    1  A    between atoms: C_6  and  O_7 
REMARK    2  A    between atoms: O_7  and  C_8 
REMARK    3  A    between atoms: C_12  and  N_13 
REMARK       I    between atoms: N_13  and  C_14 
REMARK    4  A    between atoms: C_14  and  O_16 
REMARK    5  A    between atoms: O_16  and  C_17 
ROOT
HETATM    1  C   UNL     1       0.709   3.792   1.201  1.00  0.00     0.080 C 
HETATM    2  C   UNL     1      -0.344   4.690   1.404  1.00  0.00     0.037 C 
HETATM    3  C   UNL     1      -0.208   6.020   0.999  1.00  0.00     0.005 C 
HETATM    4  C   UNL     1       0.999   6.464   0.455  1.00  0.00     0.030 C 
HETATM    5  C   UNL     1       2.087   5.593   0.380  1.00  0.00     0.039 C 
HETATM    6  C   UNL     1       1.941   4.252   0.746  1.00  0.00     0.066 C 
ENDROOT
BRANCH   5   7
HETATM    7  N   UNL     1       3.302   6.068  -0.146  1.00  0.00    -0.302 N 
HETATM    8  C   UNL     1       4.515   5.568   0.280  1.00  0.00     0.370 C 
HETATM    9  O   UNL     1       4.753   5.256   1.448  1.00  0.00    -0.238 OA
HETATM   10  H   UNL     1       3.304   6.240  -1.142  1.00  0.00     0.171 HD
BRANCH   8  11
HETATM   11  O   UNL     1       5.403   5.594  -0.755  1.00  0.00    -0.255 OA
BRANCH  11  12
HETATM   12  C   UNL     1       6.352   4.576  -0.589  1.00  0.00     0.152 C 
HETATM   13  C   UNL     1       5.983   3.204  -0.968  1.00  0.00     0.205 C 
HETATM   14  C   UNL     1       6.888   2.267  -0.644  1.00  0.00     0.057 C 
HETATM   15  O   UNL     1       4.864   3.094  -1.539  1.00  0.00    -0.286 OA
HETATM   16  C   UNL     1       8.200   2.568   0.014  1.00  0.00     0.206 C 
HETATM   17  O   UNL     1       8.582   3.953   0.105  1.00  0.00    -0.356 OA
HETATM   18  C   UNL     1       7.580   4.858  -0.130  1.00  0.00     0.176 C 
ENDBRANCH  11  12
ENDBRANCH   8  11
ENDBRANCH   5   7
BRANCH   1  19
HETATM   19  O   UNL     1       0.580   2.445   1.454  1.00  0.00    -0.291 OA
BRANCH  19  20
HETATM   20  C   UNL     1      -0.186   1.689   0.582  1.00  0.00     0.188 A 
HETATM   21  C   UNL     1      -1.082   2.225  -0.334  1.00  0.00     0.174 A 
HETATM   22  N   UNL     1      -1.941   1.470  -1.041  1.00  0.00    -0.267 NA
HETATM   23  C   UNL     1      -1.800   0.142  -0.839  1.00  0.00     0.143 A 
HETATM   24  C   UNL     1      -0.866  -0.500   0.000  1.00  0.00     0.051 A 
HETATM   25  C   UNL     1      -0.866  -1.500   0.000  1.00  0.00     0.072 C 
HETATM   26  N   UNL     1      -0.075   0.332   0.745  1.00  0.00    -0.227 NA
ENDBRANCH  19  20
ENDBRANCH   1  19
TORSDOF 5
