REMARK  3 active torsions:
REMARK  status: ('A' for Active; 'I' for Inactive)
REMARK    1  A    between atoms: C_2  and  O_3 
REMARK    2  A    between atoms: C_2  and  C_11 
REMARK    3  A    between atoms: O_3  and  C_4 
ROOT
HETATM    1  C   UNL     1      -0.656  -0.359  -0.107  1.00  0.00     0.129 C 
HETATM    2  C   UNL     1      -1.698   0.479  -0.221  1.00  0.00     0.041 C 
HETATM    3  C   UNL     1      -1.517   1.956  -0.057  1.00  0.00     0.205 C 
HETATM    4  O   UNL     1      -0.187   2.449  -0.238  1.00  0.00    -0.355 OA
HETATM    5  C   UNL     1       0.804   1.543   0.044  1.00  0.00     0.192 C 
HETATM    6  C   UNL     1       0.671   0.207   0.176  1.00  0.00     0.227 C 
HETATM    7  O   UNL     1       1.531  -0.653   0.490  1.00  0.00    -0.283 OA
ENDROOT
BRANCH   1   8
HETATM    8  O   UNL     1      -0.697  -1.775  -0.349  1.00  0.00    -0.272 OA
BRANCH   8   9
HETATM    9  C   UNL     1      -1.632  -2.759  -0.290  1.00  0.00     0.313 C 
HETATM   10  O   UNL     1      -1.363  -3.911  -0.645  1.00  0.00    -0.260 OA
BRANCH   9  11
HETATM   11  C   UNL     1      -2.996  -2.347   0.211  1.00  0.00     0.365 C 
HETATM   12  F   UNL     1      -3.741  -1.711  -0.743  1.00  0.00    -0.222 F 
HETATM   13 CL   UNL     1      -3.944  -3.776   0.736  1.00  0.00    -0.079 Cl
ENDBRANCH   9  11
ENDBRANCH   8   9
ENDBRANCH   1   8
TORSDOF 3
