REMARK  6 active torsions:
REMARK  status: ('A' for Active; 'I' for Inactive)
REMARK    1  A    between atoms: C_2  and  C_3 
REMARK    2  A    between atoms: C_3  and  O_4 
REMARK    3  A    between atoms: O_4  and  C_5 
REMARK    4  A    between atoms: C_8  and  C_9 
REMARK    5  A    between atoms: C_9  and  O_11 
REMARK    6  A    between atoms: C_9  and  C_12 
ROOT
HETATM    1  C   UNL     1       2.001   0.100  -2.546  1.00  0.00     0.068 C 
HETATM    2  C   UNL     1       2.223  -1.243  -2.292  1.00  0.00     0.037 C 
HETATM    3  C   UNL     1       1.190  -2.010  -1.753  1.00  0.00     0.013 C 
HETATM    4  C   UNL     1      -0.082  -1.453  -1.480  1.00  0.00    -0.023 C 
HETATM    5  C   UNL     1      -0.330  -0.184  -2.018  1.00  0.00     0.013 C 
HETATM    6  C   UNL     1       0.708   0.599  -2.532  1.00  0.00     0.037 C 
ENDROOT
BRANCH   4   7
HETATM    7  C   UNL     1      -0.963  -2.085  -0.361  1.00  0.00     0.096 C 
HETATM    8  C   UNL     1      -0.836  -3.647  -0.378  1.00  0.00     0.053 C 
BRANCH   7   9
HETATM    9  O   UNL     1      -0.187  -1.789   0.873  1.00  0.00    -0.384 OA
HETATM   10  H   UNL     1       0.684  -1.435   0.625  1.00  0.00     0.211 HD
ENDBRANCH   7   9
BRANCH   7  11
HETATM   11  C   UNL     1      -2.598  -1.500   0.000  1.00  0.00     0.165 A 
HETATM   12  C   UNL     1      -2.598  -0.500   0.000  1.00  0.00     0.061 A 
HETATM   13  N   UNL     1      -2.598   0.500   0.000  1.00  0.00    -0.150 N 
HETATM   14  S   UNL     1      -3.464  -2.000   0.000  1.00  0.00    -0.273 SA
HETATM   15  C   UNL     1      -3.464  -3.000   0.000  1.00  0.00     0.225 A 
ENDBRANCH   7  11
ENDBRANCH   4   7
BRANCH   1  16
HETATM   16  O   UNL     1       3.111   0.881  -2.701  1.00  0.00    -0.351 OA
BRANCH  16  17
HETATM   17  C   UNL     1       3.113   2.055  -1.874  1.00  0.00     0.175 C 
BRANCH  17  18
HETATM   18  C   UNL     1       2.924   1.820  -0.359  1.00  0.00     0.022 C 
HETATM   19  C   UNL     1       3.873   0.785   0.233  1.00  0.00     0.007 C 
ENDBRANCH  17  18
ENDBRANCH  16  17
ENDBRANCH   1  16
TORSDOF 6
