REMARK  4 active torsions:
REMARK  status: ('A' for Active; 'I' for Inactive)
REMARK    1  A    between atoms: S_2  and  C_3 
REMARK    2  A    between atoms: C_7  and  N_8 
REMARK       I    between atoms: N_8  and  C_9 
REMARK    3  A    between atoms: C_9  and  C_11 
REMARK    4  A    between atoms: C_11  and  N_12 
ROOT
HETATM    1  N   UNL     1      -0.540   2.276   0.165  1.00  0.00    -0.326 N 
HETATM    2  C   UNL     1       0.677   1.965   0.753  1.00  0.00     0.241 C 
HETATM    3  O   UNL     1       0.779   1.312   1.786  1.00  0.00    -0.271 OA
HETATM    4  H   UNL     1      -0.696   3.209  -0.194  1.00  0.00     0.169 HD
ENDROOT
BRANCH   1   5
HETATM    5  C   UNL     1      -1.593   1.351   0.057  1.00  0.00     0.036 A 
HETATM    6  C   UNL     1      -2.886   1.816  -0.174  1.00  0.00     0.029 A 
HETATM    7  C   UNL     1      -3.924   0.903  -0.368  1.00  0.00     0.004 A 
HETATM    8  C   UNL     1      -3.661  -0.471  -0.383  1.00  0.00     0.018 A 
HETATM    9  C   UNL     1      -2.362  -0.947  -0.183  1.00  0.00     0.002 A 
HETATM   10  C   UNL     1      -1.337  -0.025   0.056  1.00  0.00     0.048 A 
BRANCH   9  11
HETATM   11  S   UNL     1      -1.880  -2.664  -0.309  1.00  0.00    -0.134 SA
HETATM   12  C   UNL     1      -3.392  -3.533   0.158  1.00  0.00     0.095 C 
ENDBRANCH   9  11
ENDBRANCH   1   5
BRANCH   2  13
HETATM   13  C   UNL     1       1.858   2.541   0.010  1.00  0.00     0.248 C 
BRANCH  13  14
HETATM   14  N   UNL     1       2.981   1.628  -0.039  1.00  0.00    -0.274 N 
HETATM   15  N   UNL     1       2.819   0.310  -0.247  1.00  0.00     0.005 NA
HETATM   16  N   UNL     1       4.015  -0.257  -0.151  1.00  0.00    -0.164 NA
HETATM   17  C   UNL     1       4.943   0.736   0.016  1.00  0.00     0.065 C 
HETATM   18  C   UNL     1       4.304   1.955   0.010  1.00  0.00     0.136 C 
HETATM   19  C   UNL     1       6.375   0.433   0.186  1.00  0.00     0.073 C 
ENDBRANCH  13  14
ENDBRANCH   2  13
TORSDOF 4
