REMARK  4 active torsions:
REMARK  status: ('A' for Active; 'I' for Inactive)
REMARK    1  A    between atoms: N_1  and  N_2 
REMARK    2  A    between atoms: C_5  and  C_6 
REMARK    3  A    between atoms: C_6  and  O_8 
REMARK    4  A    between atoms: O_8  and  C_9 
ROOT
HETATM    1  C   UNL     1      -0.758   1.658   0.227  1.00  0.00     0.269 C 
HETATM    2  O   UNL     1      -0.880   1.839   1.441  1.00  0.00    -0.264 OA
ENDROOT
BRANCH   1   3
HETATM    3  C   UNL     1       0.276   0.686  -0.385  1.00  0.00     0.097 C 
HETATM    4  C   UNL     1       0.175  -0.782   0.152  1.00  0.00     0.071 C 
HETATM    5  C   UNL     1       1.685  -0.762   0.189  1.00  0.00     0.028 C 
HETATM    6  N   UNL     1       2.596  -1.670   0.218  1.00  0.00    -0.213 NA
HETATM    7  C   UNL     1       1.771   0.747   0.075  1.00  0.00     0.071 C 
BRANCH   6   8
HETATM    8  N   UNL     1       2.111  -2.932   0.290  1.00  0.00    -0.227 NA
HETATM    9  H   UNL     1       1.483  -3.148  -0.486  1.00  0.00     0.145 HD
HETATM   10  H   UNL     1       2.880  -3.600   0.234  1.00  0.00     0.145 HD
ENDBRANCH   6   8
ENDBRANCH   1   3
BRANCH   1  11
HETATM   11  O   UNL     1      -1.587   2.112  -0.762  1.00  0.00    -0.273 OA
BRANCH  11  12
HETATM   12  C   UNL     1      -2.639   2.942  -0.347  1.00  0.00     0.150 A 
HETATM   13  C   UNL     1      -2.469   4.390  -0.470  1.00  0.00     0.205 A 
HETATM   14  C   UNL     1      -3.563   5.116  -0.195  1.00  0.00     0.057 A 
HETATM   15  O   UNL     1      -1.314   4.758  -0.817  1.00  0.00    -0.286 OA
HETATM   16  C   UNL     1      -4.889   4.527   0.185  1.00  0.00     0.206 A 
HETATM   17  O   UNL     1      -4.964   3.096   0.306  1.00  0.00    -0.356 OA
HETATM   18  C   UNL     1      -3.822   2.407   0.001  1.00  0.00     0.176 A 
ENDBRANCH  11  12
ENDBRANCH   1  11
TORSDOF 4
