REMARK  5 active torsions:
REMARK  status: ('A' for Active; 'I' for Inactive)
REMARK    1  A    between atoms: N_4  and  C_5 
REMARK    2  A    between atoms: C_5  and  C_6 
REMARK    3  A    between atoms: C_6  and  C_7 
REMARK    4  A    between atoms: C_7  and  C_8 
REMARK    5  A    between atoms: C_8  and  C_10 
ROOT
HETATM    1  C   UNL     1      -3.670   1.996  -0.022  1.00  0.00     0.029 C 
ENDROOT
BRANCH   1   2
HETATM    2  C   UNL     1      -2.334   2.509   0.514  1.00  0.00     0.146 C 
BRANCH   2   3
HETATM    3  N   UNL     1      -1.321   1.488   0.301  1.00  0.00    -0.283 N 
HETATM    4  C   UNL     1      -1.329   0.217   0.803  1.00  0.00     0.136 A 
HETATM    5  C   UNL     1      -0.502  -0.477  -0.051  1.00  0.00     0.065 A 
HETATM    6  C   UNL     1      -0.243  -1.926  -0.143  1.00  0.00     0.073 C 
HETATM    7  N   UNL     1       0.051   0.399  -0.948  1.00  0.00    -0.164 NA
HETATM    8  N   UNL     1      -0.459   1.602  -0.721  1.00  0.00     0.004 NA
ENDBRANCH   2   3
ENDBRANCH   1   2
BRANCH   1   9
HETATM    9  C   UNL     1      -4.775   3.038  -0.065  1.00  0.00     0.086 C 
BRANCH   9  10
HETATM   10  C   UNL     1      -6.148   2.541  -0.528  1.00  0.00     0.166 C 
HETATM   11  O   UNL     1      -6.978   3.382  -0.886  1.00  0.00    -0.292 OA
BRANCH  10  12
HETATM   12  C   UNL     1      -6.476   1.124  -0.416  1.00  0.00     0.050 A 
HETATM   13  S   UNL     1      -7.815   0.667   0.548  1.00  0.00    -0.098 SA
HETATM   14  C   UNL     1      -7.546  -0.997   0.253  1.00  0.00     0.050 A 
HETATM   15  C   UNL     1      -6.476  -1.206  -0.589  1.00  0.00     0.009 A 
HETATM   16  C   UNL     1      -5.878   0.022  -1.000  1.00  0.00     0.023 A 
ENDBRANCH  10  12
ENDBRANCH   9  10
ENDBRANCH   1   9
TORSDOF 5
