REMARK  1 active torsions:
REMARK  status: ('A' for Active; 'I' for Inactive)
REMARK    1  A    between atoms: N_6  and  C_7 
ROOT
HETATM    1  N   UNL     1      -1.241  -3.128   1.374  1.00  0.00    -0.172 NA
HETATM    2  C   UNL     1      -1.153  -2.070   0.917  1.00  0.00     0.179 C 
HETATM    3  N   UNL     1      -1.057  -0.843   0.384  1.00  0.00    -0.317 N 
HETATM    4  C   UNL     1      -2.231  -0.121  -0.194  1.00  0.00     0.154 C 
HETATM    5  C   UNL     1      -2.129   1.381   0.105  1.00  0.00     0.145 C 
HETATM    6  N   UNL     1      -0.822   1.969  -0.190  1.00  0.00    -0.356 N 
HETATM    7  C   UNL     1       0.373   1.165   0.079  1.00  0.00     0.145 C 
HETATM    8  C   UNL     1       0.210  -0.328  -0.227  1.00  0.00     0.154 C 
ENDROOT
BRANCH   6   9
HETATM    9  C   UNL     1      -0.687   3.342  -0.039  1.00  0.00     0.350 C 
HETATM   10  O   UNL     1       0.369   3.940   0.123  1.00  0.00    -0.284 OA
ENDBRANCH   6   9
TORSDOF 1
