REMARK  8 active torsions:
REMARK  status: ('A' for Active; 'I' for Inactive)
REMARK    1  A    between atoms: C_7  and  O_8 
REMARK    2  A    between atoms: O_8  and  C_9 
REMARK    3  A    between atoms: C_9  and  C_10 
REMARK    4  A    between atoms: C_10  and  O_11 
REMARK    5  A    between atoms: C_10  and  C_12 
REMARK    6  A    between atoms: C_12  and  C_13 
REMARK    7  A    between atoms: C_13  and  N_14 
REMARK    8  A    between atoms: C_16  and  C_17 
ROOT
HETATM    1  C   UNL     1       2.094   0.924   0.402  1.00  0.00     0.055 C 
ENDROOT
BRANCH   1   2
HETATM    2  C   UNL     1       2.950   1.905   1.217  1.00  0.00     0.144 C 
BRANCH   2   3
HETATM    3  C   UNL     1       3.391   3.178   0.464  1.00  0.00     0.207 C 
BRANCH   3   4
HETATM    4  O   UNL     1       3.948   2.893  -0.827  1.00  0.00    -0.343 OA
BRANCH   4   5
HETATM    5  C   UNL     1       5.259   2.461  -0.769  1.00  0.00     0.136 C 
HETATM    6  C   UNL     1       6.351   3.293  -0.165  1.00  0.00     0.186 C 
HETATM    7  O   UNL     1       6.144   4.438   0.234  1.00  0.00    -0.290 OA
HETATM    8  C   UNL     1       7.742   2.716  -0.181  1.00  0.00     0.112 C 
HETATM    9  C   UNL     1       7.646   1.204  -0.195  1.00  0.00     0.182 C 
HETATM   10  O   UNL     1       6.869   0.736  -1.302  1.00  0.00    -0.360 OA
HETATM   11  C   UNL     1       5.628   1.314  -1.351  1.00  0.00     0.175 C 
ENDBRANCH   4   5
ENDBRANCH   3   4
ENDBRANCH   2   3
BRANCH   2  12
HETATM   12  O   UNL     1       4.106   1.230   1.731  1.00  0.00    -0.393 OA
HETATM   13  H   UNL     1       4.170   0.349   1.324  1.00  0.00     0.210 HD
ENDBRANCH   2  12
ENDBRANCH   1   2
BRANCH   1  14
HETATM   14  C   UNL     1       0.866   1.582  -0.221  1.00  0.00     0.148 C 
BRANCH  14  15
HETATM   15  N   UNL     1      -0.371   0.851  -0.049  1.00  0.00    -0.283 N 
HETATM   16  N   UNL     1      -0.484  -0.437  -0.411  1.00  0.00     0.005 NA
HETATM   17  N   UNL     1      -1.774  -0.752  -0.353  1.00  0.00    -0.158 NA
HETATM   18  C   UNL     1      -2.472   0.365   0.029  1.00  0.00     0.104 A 
HETATM   19  C   UNL     1      -1.581   1.380   0.294  1.00  0.00     0.141 A 
BRANCH  18  20
HETATM   20  C   UNL     1      -3.910   0.457   0.060  1.00  0.00     0.030 A 
HETATM   21  C   UNL     1      -4.722  -0.658  -0.013  1.00  0.00     0.133 A 
HETATM   22  N   UNL     1      -6.075  -0.607  -0.050  1.00  0.00    -0.253 NA
HETATM   23  C   UNL     1      -6.615   0.620  -0.018  1.00  0.00     0.232 A 
HETATM   24  N   UNL     1      -5.939   1.775   0.060  1.00  0.00    -0.253 NA
HETATM   25  C   UNL     1      -4.593   1.659   0.096  1.00  0.00     0.133 A 
ENDBRANCH  18  20
ENDBRANCH  14  15
ENDBRANCH   1  14
TORSDOF 8
