REMARK  7 active torsions:
REMARK  status: ('A' for Active; 'I' for Inactive)
REMARK    1  A    between atoms: S_2  and  C_3 
REMARK    2  A    between atoms: C_3  and  N_5 
REMARK    3  A    between atoms: N_5  and  C_6 
REMARK    4  A    between atoms: C_6  and  C_7 
REMARK    5  A    between atoms: C_7  and  N_8 
REMARK    6  A    between atoms: C_7  and  O_11 
REMARK    7  A    between atoms: O_11  and  C_12 
ROOT
HETATM    1  N   UNL     1      -0.431   3.979  -1.356  1.00  0.00    -0.241 NA
HETATM    2  C   UNL     1      -1.404   4.591  -1.097  1.00  0.00     0.160 C 
HETATM    3  S   UNL     1      -2.731   5.378  -0.721  1.00  0.00    -0.055 SA
ENDROOT
BRANCH   1   4
HETATM    4  C   UNL     1       0.319   3.506  -0.194  1.00  0.00     0.268 C 
BRANCH   4   5
HETATM    5  C   UNL     1       1.520   4.448   0.020  1.00  0.00     0.149 C 
BRANCH   5   6
HETATM    6  N   UNL     1       2.460   3.874   0.982  1.00  0.00    -0.276 NA
HETATM    7  H   UNL     1       2.248   2.890   1.122  1.00  0.00     0.129 HD
BRANCH   6   8
HETATM    8  C   UNL     1       3.772   3.956   0.625  1.00  0.00     0.083 C 
HETATM    9  S   UNL     1       4.633   5.385   0.552  1.00  0.00    -0.062 SA
BRANCH   8  10
HETATM   10  S   UNL     1       4.330   2.500   0.000  1.00  0.00    -0.244 SA
HETATM   11  C   UNL     1       4.330   1.500   0.000  1.00  0.00     0.266 C 
ENDBRANCH   8  10
ENDBRANCH   6   8
ENDBRANCH   5   6
ENDBRANCH   4   5
BRANCH   4  12
HETATM   12  O   UNL     1       0.885   2.181  -0.349  1.00  0.00    -0.292 OA
BRANCH  12  13
HETATM   13  C   UNL     1       0.183   1.059  -0.087  1.00  0.00     0.256 C 
HETATM   14  C   UNL     1      -1.297   1.178   0.120  1.00  0.00     0.126 C 
HETATM   15  O   UNL     1       0.754  -0.024   0.009  1.00  0.00    -0.266 OA
ENDBRANCH  12  13
ENDBRANCH   4  12
ENDBRANCH   1   4
TORSDOF 7
