REMARK  16 active torsions:
REMARK  status: ('A' for Active; 'I' for Inactive)
REMARK    1  A    between atoms: C_2  and  C_3 
REMARK    2  A    between atoms: C_6  and  N_7 
REMARK    3  A    between atoms: N_7  and  C_8 
REMARK    4  A    between atoms: C_8  and  C_9 
REMARK    5  A    between atoms: C_10  and  C_11 
REMARK    6  A    between atoms: C_10  and  C_18 
REMARK    7  A    between atoms: C_16  and  O_17 
REMARK    8  A    between atoms: C_18  and  C_19 
REMARK    9  A    between atoms: C_18  and  C_22 
REMARK   10  A    between atoms: C_19  and  C_20 
REMARK   11  A    between atoms: C_20  and  O_21 
REMARK   12  A    between atoms: C_22  and  C_24 
REMARK   13  A    between atoms: C_24  and  O_25 
REMARK   14  A    between atoms: C_24  and  C_26 
REMARK   15  A    between atoms: C_26  and  C_28 
REMARK   16  A    between atoms: C_28  and  C_29 
ROOT
HETATM    1  C   UNL     1       3.954   0.807  -0.663  1.00  0.00     0.011 C 
HETATM    2  C   UNL     1       4.822   1.553   0.069  1.00  0.00    -0.036 C 
ENDROOT
BRANCH   2   3
HETATM    3  C   UNL     1       4.802   3.102  -0.225  1.00  0.00     0.004 A 
HETATM    4  C   UNL     1       3.733   3.801  -0.859  1.00  0.00     0.076 A 
HETATM    5  C   UNL     1       3.611   5.202  -0.901  1.00  0.00     0.037 A 
HETATM    6  C   UNL     1       4.603   6.006  -0.383  1.00  0.00     0.003 A 
HETATM    7  C   UNL     1       5.728   5.393   0.129  1.00  0.00     0.001 A 
HETATM    8  C   UNL     1       5.813   3.985   0.204  1.00  0.00     0.015 A 
BRANCH   4   9
HETATM    9  O   UNL     1       2.713   3.202  -1.552  1.00  0.00    -0.360 OA
HETATM   10  H   UNL     1       3.058   3.066  -2.453  1.00  0.00     0.217 HD
ENDBRANCH   4   9
ENDBRANCH   2   3
BRANCH   2  11
HETATM   11  C   UNL     1       5.738   0.917   1.237  1.00  0.00     0.094 C 
BRANCH  11  12
HETATM   12  C   UNL     1       7.216   1.421   1.097  1.00  0.00     0.043 C 
BRANCH  12  13
HETATM   13  C   UNL     1       8.405   0.532   1.404  1.00  0.00     0.165 C 
BRANCH  13  14
HETATM   14  O   UNL     1       9.586   1.311   1.210  1.00  0.00    -0.401 OA
HETATM   15  H   UNL     1      10.339   0.765   1.500  1.00  0.00     0.209 HD
ENDBRANCH  13  14
ENDBRANCH  12  13
ENDBRANCH  11  12
BRANCH  11  16
HETATM   16  C   UNL     1       5.793  -0.782   1.397  1.00  0.00     0.171 C 
HETATM   17  O   UNL     1       5.708  -1.317   2.504  1.00  0.00    -0.294 OA
BRANCH  16  18
HETATM   18  C   UNL     1       6.110  -1.593   0.000  1.00  0.00     0.257 C 
BRANCH  18  19
HETATM   19  O   UNL     1       6.459  -1.431  -1.397  1.00  0.00    -0.380 OA
HETATM   20  H   UNL     1       7.286  -0.922  -1.478  1.00  0.00     0.211 HD
ENDBRANCH  18  19
BRANCH  18  21
HETATM   21  C   UNL     1       6.110  -2.593   0.000  1.00  0.00     0.169 C 
HETATM   22  O   UNL     1       5.020  -3.207   0.024  1.00  0.00    -0.294 OA
BRANCH  21  23
HETATM   23  C   UNL     1       7.309  -3.524  -0.080  1.00  0.00     0.159 C 
BRANCH  23  24
HETATM   24  C   UNL     1       8.612  -2.979   0.428  1.00  0.00     0.130 C 
HETATM   25  C   UNL     1       9.843  -3.180  -0.419  1.00  0.00     0.091 C 
HETATM   26  O   UNL     1       8.687  -2.418   1.515  1.00  0.00    -0.298 OA
ENDBRANCH  23  24
ENDBRANCH  21  23
ENDBRANCH  18  21
ENDBRANCH  16  18
ENDBRANCH  11  16
ENDBRANCH   2  11
BRANCH   1  27
HETATM   27  C   UNL     1       3.375  -0.567  -0.499  1.00  0.00     0.298 C 
BRANCH  27  28
HETATM   28  N   UNL     1       1.913  -0.563  -0.441  1.00  0.00     0.091 N 
HETATM   29  H   UNL     1       1.620  -1.540  -0.472  1.00  0.00     0.316 HD
BRANCH  28  30
HETATM   30  C   UNL     1       1.429   0.040   0.810  1.00  0.00     0.221 C 
HETATM   31  C   UNL     1       1.216   1.544   0.645  1.00  0.00     0.036 C 
HETATM   32  C   UNL     1      -0.076   1.876   1.360  1.00  0.00     0.007 C 
HETATM   33  C   UNL     1      -0.935   0.627   1.199  1.00  0.00    -0.013 C 
HETATM   34  C   UNL     1       0.068  -0.529   1.229  1.00  0.00     0.040 C 
BRANCH  33  35
HETATM   35  C   UNL     1      -1.774   0.601  -0.086  1.00  0.00     0.000 C 
HETATM   36  C   UNL     1      -2.910   1.612  -0.055  1.00  0.00     0.005 C 
ENDBRANCH  33  35
ENDBRANCH  28  30
ENDBRANCH  27  28
ENDBRANCH   1  27
TORSDOF 16
