REMARK  3 active torsions:
REMARK  status: ('A' for Active; 'I' for Inactive)
REMARK    1  A    between atoms: C_4  and  C_5 
REMARK    2  A    between atoms: C_9  and  S_10 
REMARK    3  A    between atoms: S_10  and  C_11 
ROOT
HETATM    1  C   UNL     1      -2.822  -2.306   0.029  1.00  0.00     0.074 A 
HETATM    2  C   UNL     1      -2.826  -3.683   0.017  1.00  0.00     0.052 A 
HETATM    3  C   UNL     1      -4.065  -4.275  -0.000  1.00  0.00     0.122 A 
HETATM    4  N   UNL     1      -5.217  -3.582  -0.007  1.00  0.00    -0.235 NA
HETATM    5  C   UNL     1      -5.116  -2.244   0.002  1.00  0.00     0.195 A 
HETATM    6  N   UNL     1      -3.955  -1.577   0.018  1.00  0.00    -0.222 NA
ENDROOT
BRANCH   1   7
HETATM    7  C   UNL     1      -1.600  -1.522   0.058  1.00  0.00     0.029 A 
HETATM    8  C   UNL     1      -0.308  -2.007   0.071  1.00  0.00     0.127 A 
HETATM    9  N   UNL     1       0.514  -0.915   0.076  1.00  0.00    -0.285 N 
HETATM   10  C   UNL     1       1.951  -0.925  -0.055  1.00  0.00     0.179 C 
HETATM   11  N   UNL     1      -0.150   0.253   0.083  1.00  0.00    -0.185 NA
HETATM   12  C   UNL     1      -1.434  -0.117   0.058  1.00  0.00     0.154 A 
ENDBRANCH   1   7
BRANCH   5  13
HETATM   13  S   UNL     1      -6.628  -1.331   0.003  1.00  0.00    -0.021 SA
BRANCH  13  14
HETATM   14  C   UNL     1      -6.039   0.316   0.020  1.00  0.00     0.312 C 
HETATM   15  O   UNL     1      -6.821   1.266   0.029  1.00  0.00    -0.295 OA
ENDBRANCH  13  14
ENDBRANCH   5  13
TORSDOF 3
