REMARK  3 active torsions:
REMARK  status: ('A' for Active; 'I' for Inactive)
REMARK    1  A    between atoms: C_6  and  C_7 
REMARK    2  A    between atoms: C_7  and  N_8 
REMARK    3  A    between atoms: N_8  and  C_9 
ROOT
HETATM    1  C   UNL     1       0.337  -2.051  -0.000  1.00  0.00     0.157 C 
HETATM    2  N   UNL     1      -0.387  -0.861   0.000  1.00  0.00    -0.347 N 
HETATM    3  C   UNL     1      -1.766  -0.909   0.000  1.00  0.00     0.111 A 
HETATM    4  C   UNL     1      -2.194   0.384   0.000  1.00  0.00     0.136 A 
HETATM    5  N   UNL     1      -1.123   1.215   0.000  1.00  0.00    -0.244 NA
HETATM    6  C   UNL     1      -0.016   0.494   0.000  1.00  0.00     0.123 A 
ENDROOT
BRANCH   6   7
HETATM    7  C   UNL     1       1.359   1.060  -0.000  1.00  0.00     0.200 C 
BRANCH   7   8
HETATM    8  N   UNL     1       1.588   2.491   0.000  1.00  0.00    -0.361 N 
HETATM    9  H   UNL     1       2.559   2.776   0.000  1.00  0.00     0.162 HD
BRANCH   8  10
HETATM   10  C   UNL     1       0.747   3.570   0.000  1.00  0.00     0.348 C 
HETATM   11  O   UNL     1      -0.465   3.669  -0.000  1.00  0.00    -0.284 OA
ENDBRANCH   8  10
ENDBRANCH   7   8
ENDBRANCH   6   7
TORSDOF 3
