REMARK  3 active torsions:
REMARK  status: ('A' for Active; 'I' for Inactive)
REMARK    1  A    between atoms: N_4  and  C_5 
REMARK    2  A    between atoms: C_8  and  N_9 
REMARK    3  A    between atoms: C_13  and  N_14 
ROOT
HETATM    1  C   UNL     1      -2.857  -1.795  -0.000  1.00  0.00     0.087 A 
HETATM    2  C   UNL     1      -2.847  -3.222  -0.000  1.00  0.00     0.036 A 
HETATM    3  C   UNL     1      -4.004  -3.998  -0.000  1.00  0.00     0.038 A 
HETATM    4  C   UNL     1      -5.236  -3.368   0.000  1.00  0.00     0.105 A 
HETATM    5  C   UNL     1      -5.303  -1.971   0.000  1.00  0.00     0.074 A 
HETATM    6  C   UNL     1      -4.127  -1.158   0.000  1.00  0.00     0.133 A 
ENDROOT
BRANCH   1   7
HETATM    7  N   UNL     1      -1.558  -1.186  -0.000  1.00  0.00    -0.245 N 
HETATM    8  C   UNL     1      -0.335  -1.832  -0.000  1.00  0.00     0.142 A 
HETATM    9  C   UNL     1       0.625  -0.850  -0.000  1.00  0.00     0.065 A 
HETATM   10  C   UNL     1       2.057  -1.017   0.000  1.00  0.00     0.073 C 
HETATM   11  N   UNL     1      -0.007   0.353  -0.000  1.00  0.00    -0.163 NA
HETATM   12  N   UNL     1      -1.314   0.132  -0.000  1.00  0.00     0.009 NA
ENDBRANCH   1   7
BRANCH   6  13
HETATM   13  N   UNL     1      -4.422   0.305  -0.000  1.00  0.00    -0.113 N 
HETATM   14  O   UNL     1      -3.523   1.134   0.000  1.00  0.00    -0.532 OA
HETATM   15  O   UNL     1      -5.620   0.628   0.000  1.00  0.00    -0.532 OA
ENDBRANCH   6  13
BRANCH   4  16
HETATM   16  N   UNL     1      -6.459  -4.176   0.000  1.00  0.00    -0.116 N 
HETATM   17  O   UNL     1      -7.543  -3.578   0.000  1.00  0.00    -0.532 OA
HETATM   18  O   UNL     1      -6.332  -5.409   0.000  1.00  0.00    -0.532 OA
ENDBRANCH   4  16
TORSDOF 3
