REMARK  5 active torsions:
REMARK  status: ('A' for Active; 'I' for Inactive)
REMARK    1  A    between atoms: C_2  and  C_3 
REMARK    2  A    between atoms: C_3  and  C_4 
REMARK    3  A    between atoms: C_5  and  C_6 
REMARK    4  A    between atoms: C_6  and  O_7 
REMARK    5  A    between atoms: O_7  and  C_8 
ROOT
HETATM    1  C   UNL     1       4.330   0.500   0.000  1.00  0.00    -0.101 C 
HETATM    2  C   UNL     1       3.464   0.000   0.000  1.00  0.00    -0.080 C 
ENDROOT
BRANCH   2   3
HETATM    3  C   UNL     1       2.598  -0.500   0.000  1.00  0.00     0.271 C 
BRANCH   3   4
HETATM    4  O   UNL     1       1.458   0.371   0.250  1.00  0.00    -0.316 OA
BRANCH   4   5
HETATM    5  C   UNL     1       0.230  -0.164   0.075  1.00  0.00     0.398 C 
HETATM    6  O   UNL     1      -0.812   0.461   0.191  1.00  0.00    -0.276 OA
ENDBRANCH   4   5
ENDBRANCH   3   4
ENDBRANCH   2   3
BRANCH   1   7
HETATM    7  C   UNL     1       5.581   1.274  -0.074  1.00  0.00     0.120 C 
BRANCH   7   8
HETATM    8  C   UNL     1       6.827   0.433  -0.174  1.00  0.00    -0.025 C 
HETATM    9  C   UNL     1       6.940  -0.902  -0.135  1.00  0.00     0.008 C 
ENDBRANCH   7   8
ENDBRANCH   1   7
TORSDOF 5
