REMARK  3 active torsions:
REMARK  status: ('A' for Active; 'I' for Inactive)
REMARK    1  A    between atoms: N_4  and  C_5 
REMARK    2  A    between atoms: C_5  and  C_6 
REMARK    3  A    between atoms: C_6  and  O_7 
ROOT
HETATM    1  C   UNL     1      -2.334   1.173   1.072  1.00  0.00     0.091 C 
HETATM    2  C   UNL     1      -3.169  -0.056   0.679  1.00  0.00     0.043 C 
HETATM    3  C   UNL     1      -4.647   0.319   0.426  1.00  0.00     0.022 C 
HETATM    4  C   UNL     1      -4.885   1.620  -0.390  1.00  0.00     0.116 C 
HETATM    5  N   UNL     1      -3.981   2.683   0.000  1.00  0.00    -0.414 N 
HETATM    6  C   UNL     1      -3.981   3.683   0.000  1.00  0.00     0.143 C 
HETATM    7  C   UNL     1      -2.567   2.212  -0.036  1.00  0.00     0.155 C 
ENDROOT
BRANCH   1   8
HETATM    8  C   UNL     1      -0.827   0.958   1.309  1.00  0.00     0.185 C 
BRANCH   8   9
HETATM    9  N   UNL     1      -0.213   0.029   0.404  1.00  0.00    -0.280 N 
HETATM   10  C   UNL     1       0.038  -1.281   0.644  1.00  0.00     0.136 A 
HETATM   11  C   UNL     1       0.252  -1.800  -0.608  1.00  0.00     0.065 A 
HETATM   12  C   UNL     1       0.390  -3.207  -1.026  1.00  0.00     0.073 C 
HETATM   13  N   UNL     1       0.249  -0.780  -1.528  1.00  0.00    -0.164 NA
HETATM   14  N   UNL     1      -0.016   0.350  -0.882  1.00  0.00     0.004 NA
ENDBRANCH   8   9
ENDBRANCH   1   8
BRANCH   1  15
HETATM   15  O   UNL     1      -2.848   1.674   2.327  1.00  0.00    -0.386 OA
HETATM   16  H   UNL     1      -3.717   2.068   2.121  1.00  0.00     0.210 HD
ENDBRANCH   1  15
TORSDOF 3
