REMARK  1 active torsions:
REMARK  status: ('A' for Active; 'I' for Inactive)
REMARK    1  A    between atoms: C_2  and  C_3 
ROOT
HETATM    1  C   UNL     1       3.000   0.000   0.000  1.00  0.00     0.055 A 
HETATM    2  C   UNL     1       2.907   0.748  -1.573  1.00  0.00     0.051 C 
HETATM    3  C   UNL     1       3.000  -1.000   0.000  1.00  0.00     0.051 C 
HETATM    4  O   UNL     1       2.808   0.876   1.169  1.00  0.00    -0.300 OA
HETATM    5  C   UNL     1       1.503   1.035   1.213  1.00  0.00     0.288 A 
HETATM    6  O   UNL     1       0.854   1.756   1.950  1.00  0.00    -0.255 OA
HETATM    7  S   UNL     1       1.000   0.000   0.000  1.00  0.00    -0.202 SA
HETATM    8  C   UNL     1       0.000   0.000   0.000  1.00  0.00     0.265 C 
ENDROOT
BRANCH   1   9
HETATM    9  C   UNL     1       4.718   0.475   0.086  1.00  0.00     0.038 C 
HETATM   10  C   UNL     1       5.800  -0.578   0.359  1.00  0.00     0.009 C 
ENDBRANCH   1   9
TORSDOF 1
