REMARK  3 active torsions:
REMARK  status: ('A' for Active; 'I' for Inactive)
REMARK       I    between atoms: C_2  and  N_3 
REMARK    1  A    between atoms: C_2  and  O_9 
REMARK       I    between atoms: N_3  and  C_4 
REMARK    2  A    between atoms: C_4  and  C_6 
REMARK    3  A    between atoms: O_9  and  C_10 
ROOT
HETATM    1  O   UNL     1       0.746   3.821   0.068  1.00  0.00    -0.238 OA
HETATM    2  C   UNL     1      -0.090   2.921   0.030  1.00  0.00     0.372 C 
HETATM    3  N   UNL     1      -1.423   3.242  -0.159  1.00  0.00    -0.272 N 
HETATM    4  C   UNL     1      -2.598   2.500   0.000  1.00  0.00     0.230 C 
HETATM    5  O   UNL     1      -3.540   3.240   0.345  1.00  0.00    -0.273 OA
HETATM    6  H   UNL     1      -1.586   4.233  -0.100  1.00  0.00     0.174 HD
ENDROOT
BRANCH   2   7
HETATM    7  O   UNL     1       0.127   1.592   0.165  1.00  0.00    -0.257 OA
BRANCH   7   8
HETATM    8  C   UNL     1       1.370   0.909   0.149  1.00  0.00     0.131 C 
HETATM    9  C   UNL     1       1.295  -0.560   0.141  1.00  0.00     0.227 C 
HETATM   10  C   UNL     1       2.444  -1.222  -0.084  1.00  0.00     0.192 C 
HETATM   11  O   UNL     1       0.132  -1.016   0.330  1.00  0.00    -0.283 OA
HETATM   12  O   UNL     1       3.691  -0.692  -0.274  1.00  0.00    -0.355 OA
HETATM   13  C   UNL     1       3.830   0.711  -0.036  1.00  0.00     0.205 C 
HETATM   14  C   UNL     1       2.572   1.503   0.080  1.00  0.00     0.041 C 
ENDBRANCH   7   8
ENDBRANCH   2   7
BRANCH   4  15
HETATM   15  C   UNL     1      -2.598   1.500   0.000  1.00  0.00     0.078 A 
HETATM   16  C   UNL     1      -3.831   1.137  -0.894  1.00  0.00     0.015 A 
HETATM   17  C   UNL     1      -2.521   1.180  -1.652  1.00  0.00     0.015 A 
ENDBRANCH   4  15
TORSDOF 3
