REMARK  15 active torsions:
REMARK  status: ('A' for Active; 'I' for Inactive)
REMARK    1  A    between atoms: C_2  and  C_4 
REMARK    2  A    between atoms: C_4  and  C_5 
REMARK    3  A    between atoms: C_5  and  C_7 
REMARK    4  A    between atoms: C_7  and  O_8 
REMARK    5  A    between atoms: C_7  and  C_9 
REMARK    6  A    between atoms: C_9  and  C_11 
REMARK    7  A    between atoms: C_11  and  C_12 
REMARK    8  A    between atoms: C_11  and  C_15 
REMARK    9  A    between atoms: C_12  and  C_13 
REMARK   10  A    between atoms: C_13  and  O_14 
REMARK   11  A    between atoms: C_15  and  C_17 
REMARK   12  A    between atoms: C_22  and  O_23 
REMARK   13  A    between atoms: O_23  and  C_24 
REMARK       I    between atoms: C_24  and  N_26 
REMARK   14  A    between atoms: N_26  and  C_27 
REMARK   15  A    between atoms: C_27  and  C_28 
ROOT
HETATM    1  C   UNL     1      -4.928  -1.530  -0.040  1.00  0.00     0.044 C 
HETATM    2  C   UNL     1      -6.281  -1.193   0.097  1.00  0.00     0.018 C 
HETATM    3  C   UNL     1      -6.726   0.129  -0.055  1.00  0.00     0.001 C 
HETATM    4  C   UNL     1      -5.829   1.146  -0.350  1.00  0.00     0.003 C 
HETATM    5  C   UNL     1      -4.476   0.851  -0.404  1.00  0.00     0.038 C 
HETATM    6  C   UNL     1      -4.035  -0.462  -0.185  1.00  0.00     0.094 C 
ENDROOT
BRANCH   1   7
HETATM    7  C   UNL     1      -4.404  -2.945  -0.139  1.00  0.00     0.173 C 
HETATM    8  O   UNL     1      -3.326  -3.129  -0.710  1.00  0.00    -0.291 OA
BRANCH   7   9
HETATM    9  C   UNL     1      -5.143  -4.121   0.501  1.00  0.00     0.135 C 
BRANCH   9  10
HETATM   10  C   UNL     1      -6.601  -4.243   0.145  1.00  0.00     0.174 C 
HETATM   11  O   UNL     1      -7.447  -4.207   1.050  1.00  0.00    -0.294 OA
BRANCH  10  12
HETATM   12  C   UNL     1      -7.042  -4.489  -1.295  1.00  0.00     0.258 C 
BRANCH  12  13
HETATM   13  C   UNL     1      -8.349  -3.735  -1.587  1.00  0.00     0.169 C 
HETATM   14  O   UNL     1      -8.375  -2.726  -2.297  1.00  0.00    -0.294 OA
BRANCH  13  15
HETATM   15  C   UNL     1      -9.618  -4.299  -0.998  1.00  0.00     0.159 C 
BRANCH  15  16
HETATM   16  C   UNL     1     -10.215  -3.556   0.170  1.00  0.00     0.130 C 
HETATM   17  C   UNL     1     -10.466  -2.076   0.070  1.00  0.00     0.091 C 
HETATM   18  O   UNL     1     -10.647  -4.187   1.137  1.00  0.00    -0.298 OA
ENDBRANCH  15  16
ENDBRANCH  13  15
ENDBRANCH  12  13
BRANCH  12  19
HETATM   19  O   UNL     1      -6.020  -4.197  -2.220  1.00  0.00    -0.380 OA
HETATM   20  H   UNL     1      -6.252  -4.600  -3.076  1.00  0.00     0.211 HD
ENDBRANCH  12  19
ENDBRANCH  10  12
ENDBRANCH   9  10
BRANCH   9  21
HETATM   21  C   UNL     1      -4.433  -5.473   0.243  1.00  0.00     0.046 C 
BRANCH  21  22
HETATM   22  C   UNL     1      -5.256  -6.686   0.676  1.00  0.00     0.165 C 
BRANCH  22  23
HETATM   23  O   UNL     1      -4.470  -7.864   0.591  1.00  0.00    -0.401 OA
HETATM   24  H   UNL     1      -5.041  -8.606   0.854  1.00  0.00     0.209 HD
ENDBRANCH  22  23
ENDBRANCH  21  22
ENDBRANCH   9  21
ENDBRANCH   7   9
ENDBRANCH   1   7
BRANCH   6  25
HETATM   25  O   UNL     1      -2.646  -0.611  -0.112  1.00  0.00    -0.261 OA
BRANCH  25  26
HETATM   26  C   UNL     1      -2.136  -0.978   1.131  1.00  0.00     0.366 C 
HETATM   27  O   UNL     1      -2.795  -1.397   2.083  1.00  0.00    -0.238 OA
HETATM   28  N   UNL     1      -0.783  -0.761   1.248  1.00  0.00    -0.322 N 
HETATM   29  H   UNL     1      -0.429  -0.898   2.178  1.00  0.00     0.166 HD
BRANCH  28  30
HETATM   30  C   UNL     1       0.071  -0.124   0.223  1.00  0.00     0.072 C 
HETATM   31  C   UNL     1       1.538   0.024   0.712  1.00  0.00     0.063 C 
HETATM   32  C   UNL     1       2.328  -1.274   0.748  1.00  0.00     0.170 C 
HETATM   33  O   UNL     1       2.184  -2.023  -0.454  1.00  0.00    -0.391 OA
HETATM   34  C   UNL     1       0.819  -2.324  -0.731  1.00  0.00     0.170 C 
HETATM   35  C   UNL     1       0.084  -1.023  -1.041  1.00  0.00     0.063 C 
BRANCH  30  36
HETATM   36  C   UNL     1      -0.432   1.318  -0.026  1.00  0.00     0.011 C 
HETATM   37  S   UNL     1      -1.325   2.197   1.176  1.00  0.00    -0.104 SA
HETATM   38  C   UNL     1      -1.524   3.550   0.159  1.00  0.00     0.050 C 
HETATM   39  C   UNL     1      -0.773   3.436  -0.987  1.00  0.00     0.008 C 
HETATM   40  C   UNL     1      -0.145   2.159  -1.092  1.00  0.00     0.018 C 
ENDBRANCH  30  36
ENDBRANCH  28  30
ENDBRANCH  25  26
ENDBRANCH   6  25
TORSDOF 15
