REMARK  15 active torsions:
REMARK  status: ('A' for Active; 'I' for Inactive)
REMARK    1  A    between atoms: O_2  and  C_3 
REMARK    2  A    between atoms: C_6  and  C_7 
REMARK    3  A    between atoms: C_7  and  C_8 
REMARK    4  A    between atoms: C_8  and  O_9 
REMARK    5  A    between atoms: C_8  and  C_10 
REMARK    6  A    between atoms: C_8  and  C_23 
REMARK    7  A    between atoms: C_10  and  C_11 
REMARK    8  A    between atoms: C_10  and  C_14 
REMARK    9  A    between atoms: C_11  and  C_12 
REMARK   10  A    between atoms: C_12  and  O_13 
REMARK   11  A    between atoms: C_14  and  C_16 
REMARK   12  A    between atoms: C_23  and  O_24 
REMARK   13  A    between atoms: C_23  and  C_25 
REMARK   14  A    between atoms: C_25  and  C_27 
REMARK   15  A    between atoms: C_27  and  C_28 
ROOT
HETATM    1  C   UNL     1      -1.732   3.000   0.000  1.00  0.00     0.105 C 
ENDROOT
BRANCH   1   2
HETATM    2  C   UNL     1      -0.446   2.039  -0.798  1.00  0.00     0.080 C 
BRANCH   2   3
HETATM    3  C   UNL     1      -0.210   0.569  -0.323  1.00  0.00    -0.055 A 
HETATM    4  C   UNL     1      -0.899  -0.035   0.749  1.00  0.00     0.010 A 
HETATM    5  C   UNL     1      -0.809  -1.408   0.997  1.00  0.00     0.037 A 
HETATM    6  C   UNL     1       0.020  -2.196   0.211  1.00  0.00     0.068 A 
HETATM    7  C   UNL     1       0.817  -1.599  -0.763  1.00  0.00     0.037 A 
HETATM    8  C   UNL     1       0.691  -0.231  -1.041  1.00  0.00     0.010 A 
BRANCH   6   9
HETATM    9  O   UNL     1       0.124  -3.553   0.366  1.00  0.00    -0.356 OA
HETATM   10  C   UNL     1      -1.151  -4.198   0.317  1.00  0.00     0.210 C 
ENDBRANCH   6   9
ENDBRANCH   2   3
ENDBRANCH   1   2
BRANCH   1  11
HETATM   11  O   UNL     1      -2.232   2.134   0.000  1.00  0.00    -0.386 OA
HETATM   12  H   UNL     1      -2.360   1.569  -0.774  1.00  0.00     0.210 HD
ENDBRANCH   1  11
BRANCH   1  13
HETATM   13  C   UNL     1      -3.291   3.479  -0.788  1.00  0.00     0.100 C 
BRANCH  13  14
HETATM   14  C   UNL     1      -3.762   4.962  -0.852  1.00  0.00     0.041 C 
BRANCH  14  15
HETATM   15  C   UNL     1      -5.134   5.152  -1.510  1.00  0.00     0.165 C 
BRANCH  15  16
HETATM   16  O   UNL     1      -5.500   6.532  -1.398  1.00  0.00    -0.401 OA
HETATM   17  H   UNL     1      -5.857   6.616  -0.498  1.00  0.00     0.209 HD
ENDBRANCH  15  16
ENDBRANCH  14  15
ENDBRANCH  13  14
BRANCH  13  18
HETATM   18  C   UNL     1      -4.465   2.785   0.074  1.00  0.00     0.170 C 
HETATM   19  O   UNL     1      -4.628   3.176   1.238  1.00  0.00    -0.292 OA
BRANCH  18  20
HETATM   20  C   UNL     1      -5.271   1.581  -0.460  1.00  0.00     0.060 C 
HETATM   21  C   UNL     1      -6.667   1.474  -0.183  1.00  0.00     0.185 C 
HETATM   22  C   UNL     1      -7.240   0.197  -0.420  1.00  0.00     0.056 C 
HETATM   23  O   UNL     1      -7.410   2.425   0.234  1.00  0.00    -0.287 OA
HETATM   24  C   UNL     1      -6.544  -0.892  -0.948  1.00  0.00     0.004 C 
HETATM   25  C   UNL     1      -5.227  -0.726  -1.319  1.00  0.00     0.001 C 
HETATM   26  C   UNL     1      -4.607   0.503  -1.094  1.00  0.00     0.019 C 
ENDBRANCH  18  20
ENDBRANCH  13  18
ENDBRANCH   1  13
BRANCH   1  27
HETATM   27  C   UNL     1      -1.232   3.866   0.000  1.00  0.00     0.223 C 
BRANCH  27  28
HETATM   28  O   UNL     1      -1.686   4.833   0.994  1.00  0.00    -0.385 OA
HETATM   29  H   UNL     1      -1.934   5.681   0.570  1.00  0.00     0.210 HD
ENDBRANCH  27  28
BRANCH  27  30
HETATM   30  C   UNL     1      -0.635   4.663  -1.234  1.00  0.00     0.165 C 
HETATM   31  O   UNL     1      -0.973   4.455  -2.402  1.00  0.00    -0.295 OA
BRANCH  30  32
HETATM   32  C   UNL     1       0.504   5.621  -0.939  1.00  0.00     0.159 C 
BRANCH  32  33
HETATM   33  C   UNL     1       0.075   6.939  -0.368  1.00  0.00     0.130 C 
HETATM   34  C   UNL     1       1.164   7.938  -0.080  1.00  0.00     0.091 C 
HETATM   35  O   UNL     1      -1.108   7.209  -0.160  1.00  0.00    -0.298 OA
ENDBRANCH  32  33
ENDBRANCH  30  32
ENDBRANCH  27  30
ENDBRANCH   1  27
TORSDOF 15
