REMARK  7 active torsions:
REMARK  status: ('A' for Active; 'I' for Inactive)
REMARK    1  A    between atoms: S_2  and  C_3 
REMARK    2  A    between atoms: C_3  and  C_4 
REMARK    3  A    between atoms: C_3  and  C_6 
REMARK    4  A    between atoms: C_4  and  O_5 
REMARK    5  A    between atoms: C_6  and  C_7 
REMARK    6  A    between atoms: C_7  and  N_8 
REMARK    7  A    between atoms: C_10  and  C_11 
ROOT
HETATM    1  N   UNL     1       1.787  -0.009   0.867  1.00  0.00    -0.283 N 
HETATM    2  C   UNL     1       0.845  -0.852   1.389  1.00  0.00     0.141 C 
HETATM    3  C   UNL     1      -0.272  -0.569   0.637  1.00  0.00     0.101 C 
HETATM    4  N   UNL     1      -0.048   0.561  -0.100  1.00  0.00    -0.158 NA
HETATM    5  N   UNL     1       1.228   0.904   0.053  1.00  0.00     0.005 NA
ENDROOT
BRANCH   1   6
HETATM    6  C   UNL     1       3.215  -0.285   0.818  1.00  0.00     0.147 C 
BRANCH   6   7
HETATM    7  C   UNL     1       3.460  -1.548  -0.019  1.00  0.00     0.038 C 
BRANCH   7   8
HETATM    8  C   UNL     1       4.891  -2.092   0.039  1.00  0.00     0.072 C 
BRANCH   8   9
HETATM    9  S   UNL     1       5.060  -3.558  -1.084  1.00  0.00    -0.167 SA
HETATM   10  C   UNL     1       3.801  -4.666  -0.396  1.00  0.00     0.090 C 
ENDBRANCH   8   9
BRANCH   8  11
HETATM   11  C   UNL     1       5.956  -1.051  -0.343  1.00  0.00     0.179 C 
BRANCH  11  12
HETATM   12  O   UNL     1       5.551  -0.291  -1.477  1.00  0.00    -0.400 OA
HETATM   13  H   UNL     1       6.337   0.161  -1.821  1.00  0.00     0.209 HD
ENDBRANCH  11  12
ENDBRANCH   8  11
ENDBRANCH   7   8
ENDBRANCH   6   7
ENDBRANCH   1   6
BRANCH   3  14
HETATM   14  C   UNL     1      -1.432  -1.424   0.523  1.00  0.00    -0.004 A 
HETATM   15  C   UNL     1      -2.714  -0.883   0.399  1.00  0.00     0.020 A 
HETATM   16  C   UNL     1      -3.828  -1.725   0.249  1.00  0.00    -0.061 A 
HETATM   17  C   UNL     1      -3.643  -3.114   0.216  1.00  0.00     0.007 A 
HETATM   18  C   UNL     1      -5.203  -1.137   0.147  1.00  0.00     0.048 C 
HETATM   19  C   UNL     1      -2.366  -3.659   0.321  1.00  0.00     0.001 A 
HETATM   20  C   UNL     1      -1.266  -2.818   0.475  1.00  0.00     0.014 A 
ENDBRANCH   3  14
TORSDOF 7
