REMARK  4 active torsions:
REMARK  status: ('A' for Active; 'I' for Inactive)
REMARK    1  A    between atoms: S_2  and  C_3 
REMARK    2  A    between atoms: C_3  and  N_5 
REMARK       I    between atoms: N_5  and  C_6 
REMARK    3  A    between atoms: C_6  and  C_8 
REMARK    4  A    between atoms: C_12  and  C_13 
ROOT
HETATM    1  C   UNL     1      -0.065   0.752   0.014  1.00  0.00     0.033 A 
HETATM    2  C   UNL     1      -1.355   1.272  -0.153  1.00  0.00     0.017 A 
HETATM    3  C   UNL     1      -1.545   2.655  -0.232  1.00  0.00     0.002 A 
HETATM    4  C   UNL     1      -0.454   3.524  -0.161  1.00  0.00     0.016 A 
HETATM    5  C   UNL     1       0.847   3.023  -0.011  1.00  0.00     0.048 A 
HETATM    6  C   UNL     1       1.027   1.635   0.089  1.00  0.00     0.033 A 
ENDROOT
BRANCH   1   7
HETATM    7  C   UNL     1       0.219  -0.711   0.010  1.00  0.00     0.257 C 
HETATM    8  N   UNL     1      -0.832  -1.562   0.309  1.00  0.00    -0.308 N 
HETATM    9  H   UNL     1      -1.583  -1.204   0.883  1.00  0.00     0.170 HD
HETATM   10  O   UNL     1       1.378  -1.084  -0.150  1.00  0.00    -0.267 OA
BRANCH   8  11
HETATM   11  C   UNL     1      -0.984  -2.876  -0.088  1.00  0.00     0.141 C 
HETATM   12  S   UNL     1      -0.103  -3.722  -1.224  1.00  0.00    -0.052 SA
BRANCH  11  13
HETATM   13  S   UNL     1      -2.327  -3.608   0.776  1.00  0.00    -0.105 SA
HETATM   14  C   UNL     1      -3.709  -3.032  -0.229  1.00  0.00     0.098 C 
ENDBRANCH  11  13
ENDBRANCH   8  11
ENDBRANCH   1   7
BRANCH   5  15
HETATM   15  C   UNL     1       2.039   3.947   0.053  1.00  0.00     0.417 C 
HETATM   16  F   UNL     1       2.422   4.208   1.332  1.00  0.00    -0.166 F 
HETATM   17  F   UNL     1       1.806   5.161  -0.522  1.00  0.00    -0.166 F 
HETATM   18  F   UNL     1       3.137   3.446  -0.576  1.00  0.00    -0.166 F 
ENDBRANCH   5  15
TORSDOF 4
