REMARK  3 active torsions:
REMARK  status: ('A' for Active; 'I' for Inactive)
REMARK    1  A    between atoms: S_2  and  C_3 
REMARK    2  A    between atoms: C_5  and  N_6 
REMARK    3  A    between atoms: C_8  and  O_9 
ROOT
HETATM    1  C   UNL     1       0.608   0.545   0.000  1.00  0.00     0.210 A 
HETATM    2  N   UNL     1       1.798  -0.046  -0.000  1.00  0.00    -0.036 NA
HETATM    3  C   UNL     1       1.782  -1.367  -0.000  1.00  0.00     0.726 A 
HETATM    4  N   UNL     1       0.692  -2.108   0.000  1.00  0.00    -0.019 NA
HETATM    5  C   UNL     1      -0.425  -1.403   0.000  1.00  0.00     0.285 A 
HETATM    6  N   UNL     1      -0.559  -0.090   0.000  1.00  0.00    -0.179 NA
ENDROOT
BRANCH   3   7
HETATM    7  N   UNL     1       2.997  -1.991  -0.000  1.00  0.00    -0.231 N 
HETATM    8  H   UNL     1       3.021  -2.995  -0.000  1.00  0.00     0.174 HD
HETATM    9  H   UNL     1       3.822  -1.418  -0.000  1.00  0.00     0.174 HD
ENDBRANCH   3   7
BRANCH   1  10
HETATM   10  S   UNL     1       0.536   2.324  -0.000  1.00  0.00    -0.094 SA
HETATM   11  C   UNL     1       2.250   2.780  -0.000  1.00  0.00     0.099 C 
ENDBRANCH   1  10
BRANCH   5  12
HETATM   12  O   UNL     1      -1.598  -2.093   0.000  1.00  0.00    -0.329 OA
HETATM   13  H   UNL     1      -2.225  -1.350  -0.000  1.00  0.00     0.221 HD
ENDBRANCH   5  12
TORSDOF 3
