REMARK  2 active torsions:
REMARK  status: ('A' for Active; 'I' for Inactive)
REMARK    1  A    between atoms: C_2  and  C_3 
REMARK    2  A    between atoms: N_7  and  C_8 
ROOT
HETATM    1  C   UNL     1       0.909  -0.563  -0.508  1.00  0.00     0.216 C 
HETATM    2  N   UNL     1       0.466  -1.961  -0.383  1.00  0.00    -0.218 NA
HETATM    3  N   UNL     1      -0.932  -1.928   0.013  1.00  0.00    -0.172 NA
HETATM    4  N   UNL     1      -1.296  -0.585   0.287  1.00  0.00    -0.151 NA
HETATM    5  N   UNL     1      -0.140   0.182   0.158  1.00  0.00    -0.251 N 
HETATM    6  H   UNL     1       0.981  -2.366   0.399  1.00  0.00     0.144 HD
HETATM    7  H   UNL     1      -1.532  -2.321  -0.723  1.00  0.00     0.162 HD
HETATM    8  H   UNL     1      -1.678  -0.458   1.229  1.00  0.00     0.168 HD
ENDROOT
BRANCH   1   9
HETATM    9  C   UNL     1       2.266  -0.286   0.103  1.00  0.00     0.006 C 
HETATM   10  C   UNL     1       3.275  -1.157   0.252  1.00  0.00     0.010 C 
ENDBRANCH   1   9
BRANCH   5  11
HETATM   11  C   UNL     1      -0.269   1.555   0.114  1.00  0.00     0.369 C 
HETATM   12  O   UNL     1      -1.246   2.208   0.467  1.00  0.00    -0.282 OA
ENDBRANCH   5  11
TORSDOF 2
