REMARK  5 active torsions:
REMARK  status: ('A' for Active; 'I' for Inactive)
REMARK    1  A    between atoms: C_2  and  C_3 
REMARK    2  A    between atoms: C_2  and  O_8 
REMARK    3  A    between atoms: C_3  and  C_4 
REMARK       I    between atoms: C_4  and  N_6 
REMARK    4  A    between atoms: N_6  and  N_7 
REMARK    5  A    between atoms: O_8  and  C_9 
ROOT
HETATM    1  C   UNL     1       3.720   1.808   0.251  1.00  0.00     0.234 C 
HETATM    2  O   UNL     1       4.752   2.388  -0.080  1.00  0.00    -0.272 OA
HETATM    3  N   UNL     1       2.492   2.444   0.335  1.00  0.00    -0.294 N 
HETATM    4  H   UNL     1       1.655   1.906   0.572  1.00  0.00     0.183 HD
ENDROOT
BRANCH   1   5
HETATM    5  C   UNL     1       3.727   0.343   0.675  1.00  0.00     0.136 C 
BRANCH   5   6
HETATM    6  C   UNL     1       2.598  -0.500   0.000  1.00  0.00     0.136 C 
HETATM    7  C   UNL     1       2.598  -1.500   0.000  1.00  0.00     0.040 C 
BRANCH   6   8
HETATM    8  O   UNL     1       1.360  -0.012   0.669  1.00  0.00    -0.323 OA
BRANCH   8   9
HETATM    9  C   UNL     1       0.147  -0.257   0.111  1.00  0.00     0.398 C 
HETATM   10  O   UNL     1      -0.891   0.195   0.556  1.00  0.00    -0.276 OA
ENDBRANCH   8   9
ENDBRANCH   6   8
ENDBRANCH   5   6
ENDBRANCH   1   5
BRANCH   3  11
HETATM   11  N   UNL     1       2.341   3.746  -0.178  1.00  0.00    -0.247 NA
HETATM   12  H   UNL     1       3.287   4.119  -0.341  1.00  0.00     0.143 HD
HETATM   13  H   UNL     1       1.947   4.339   0.556  1.00  0.00     0.143 HD
ENDBRANCH   3  11
TORSDOF 5
