REMARK  7 active torsions:
REMARK  status: ('A' for Active; 'I' for Inactive)
REMARK    1  A    between atoms: C_7  and  O_8 
REMARK    2  A    between atoms: O_8  and  C_9 
REMARK    3  A    between atoms: C_9  and  N_11 
REMARK    4  A    between atoms: N_11  and  C_12 
REMARK    5  A    between atoms: C_17  and  O_18 
REMARK    6  A    between atoms: O_18  and  C_19 
REMARK    7  A    between atoms: C_19  and  C_20 
ROOT
HETATM    1  C   UNL     1       2.598   2.500   0.000  1.00  0.00     0.113 C 
HETATM    2  C   UNL     1       3.790   2.904  -1.118  1.00  0.00     0.028 C 
HETATM    3  C   UNL     1       5.162   2.694  -0.489  1.00  0.00     0.002 C 
HETATM    4  C   UNL     1       5.216   1.256  -0.047  1.00  0.00     0.003 C 
HETATM    5  C   UNL     1       3.930   0.934   0.707  1.00  0.00     0.034 C 
HETATM    6  C   UNL     1       2.598   1.500   0.000  1.00  0.00     0.144 C 
ENDROOT
BRANCH   1   7
HETATM    7  N   UNL     1       1.202   2.852  -0.650  1.00  0.00    -0.354 N 
HETATM    8  H   UNL     1       0.891   2.420  -1.523  1.00  0.00     0.163 HD
BRANCH   7   9
HETATM    9  C   UNL     1       0.156   3.483  -0.002  1.00  0.00     0.216 C 
HETATM   10  S   UNL     1       0.184   4.075   1.569  1.00  0.00    -0.033 SA
BRANCH   9  11
HETATM   11  O   UNL     1      -0.838   3.833  -0.877  1.00  0.00    -0.281 OA
BRANCH  11  12
HETATM   12  C   UNL     1      -2.146   3.386  -0.574  1.00  0.00     0.128 C 
HETATM   13  C   UNL     1      -2.603   2.109  -1.135  1.00  0.00     0.227 C 
HETATM   14  O   UNL     1      -1.832   1.625  -2.010  1.00  0.00    -0.283 OA
HETATM   15  C   UNL     1      -3.760   1.625  -0.624  1.00  0.00     0.192 C 
HETATM   16  O   UNL     1      -4.578   2.244   0.284  1.00  0.00    -0.355 OA
HETATM   17  C   UNL     1      -4.376   3.655   0.428  1.00  0.00     0.205 C 
HETATM   18  C   UNL     1      -3.003   4.148   0.118  1.00  0.00     0.041 C 
ENDBRANCH  11  12
ENDBRANCH   9  11
ENDBRANCH   7   9
ENDBRANCH   1   7
BRANCH   6  19
HETATM   19  O   UNL     1       1.523   0.771   0.736  1.00  0.00    -0.379 OA
BRANCH  19  20
HETATM   20  C   UNL     1       1.629  -0.666   0.604  1.00  0.00     0.206 C 
BRANCH  20  21
HETATM   21  C   UNL     1       0.387  -1.516   0.510  1.00  0.00    -0.035 A 
HETATM   22  C   UNL     1      -0.874  -1.000   0.235  1.00  0.00     0.009 A 
HETATM   23  C   UNL     1      -1.959  -1.861   0.036  1.00  0.00     0.001 A 
HETATM   24  C   UNL     1      -1.797  -3.244   0.114  1.00  0.00     0.000 A 
HETATM   25  C   UNL     1      -0.544  -3.775   0.395  1.00  0.00     0.001 A 
HETATM   26  C   UNL     1       0.539  -2.916   0.589  1.00  0.00     0.009 A 
ENDBRANCH  20  21
ENDBRANCH  19  20
ENDBRANCH   6  19
TORSDOF 7
