REMARK  4 active torsions:
REMARK  status: ('A' for Active; 'I' for Inactive)
REMARK    1  A    between atoms: C_2  and  O_3 
REMARK    2  A    between atoms: C_2  and  C_11 
REMARK    3  A    between atoms: O_3  and  C_4 
REMARK    4  A    between atoms: C_9  and  O_10 
ROOT
HETATM    1  O   UNL     1       2.315   2.514   0.428  1.00  0.00    -0.257 OA
HETATM    2  C   UNL     1       1.295   1.849   0.278  1.00  0.00     0.317 C 
ENDROOT
BRANCH   2   3
HETATM    3  O   UNL     1       0.108   2.408  -0.033  1.00  0.00    -0.271 OA
BRANCH   3   4
HETATM    4  C   UNL     1      -1.162   1.847  -0.279  1.00  0.00     0.112 C 
HETATM    5  C   UNL     1      -2.266   2.667   0.157  1.00  0.00     0.121 C 
HETATM    6  C   UNL     1      -3.521   2.238   0.010  1.00  0.00     0.174 C 
HETATM    7  O   UNL     1      -3.891   1.047  -0.551  1.00  0.00    -0.356 OA
HETATM    8  C   UNL     1      -2.843   0.167  -0.996  1.00  0.00     0.205 C 
HETATM    9  C   UNL     1      -1.431   0.686  -0.899  1.00  0.00     0.040 C 
BRANCH   5  10
HETATM   10  O   UNL     1      -1.983   3.902   0.693  1.00  0.00    -0.356 OA
HETATM   11  H   UNL     1      -1.020   4.030   0.637  1.00  0.00     0.218 HD
ENDBRANCH   5  10
ENDBRANCH   3   4
ENDBRANCH   2   3
BRANCH   2  12
HETATM   12  C   UNL     1       1.394   0.334   0.424  1.00  0.00     0.139 A 
HETATM   13  N   UNL     1       0.512  -0.317   1.114  1.00  0.00    -0.188 NA
HETATM   14  C   UNL     1       0.610  -1.683   1.161  1.00  0.00     0.346 A 
HETATM   15  N   UNL     1       1.680  -2.277   0.531  1.00  0.00    -0.317 N 
HETATM   16  O   UNL     1      -0.224  -2.391   1.714  1.00  0.00    -0.245 OA
HETATM   17  C   UNL     1       2.646  -1.594  -0.144  1.00  0.00     0.095 A 
HETATM   18  H   UNL     1       1.709  -3.287   0.609  1.00  0.00     0.170 HD
HETATM   19  C   UNL     1       2.569  -0.269  -0.251  1.00  0.00     0.055 A 
ENDBRANCH   2  12
TORSDOF 4
