REMARK  2 active torsions:
REMARK  status: ('A' for Active; 'I' for Inactive)
REMARK    1  A    between atoms: O_13  and  C_14 
REMARK    2  A    between atoms: C_21  and  O_23 
ROOT
HETATM    1  C   UNL     1       3.856  -3.634   0.590  1.00  0.00     0.011 C 
HETATM    2  C   UNL     1       3.500  -1.866   0.000  1.00  0.00     0.074 A 
HETATM    3  C   UNL     1       3.500  -0.866   0.000  1.00  0.00    -0.009 A 
HETATM    4  O   UNL     1       4.500  -0.866   0.000  1.00  0.00     0.000 OA
HETATM    5  C   UNL     1       3.500   0.134   0.000  1.00  0.00     0.017 A 
HETATM    6  C   UNL     1       4.017   1.051   1.334  1.00  0.00    -0.011 C 
HETATM    7  C   UNL     1       4.843   2.187   1.296  1.00  0.00    -0.003 C 
HETATM    8  C   UNL     1       5.493   2.554   0.107  1.00  0.00    -0.001 C 
HETATM    9  C   UNL     1       5.256   1.929  -1.129  1.00  0.00    -0.003 C 
HETATM   10  C   UNL     1       4.305   0.897  -1.263  1.00  0.00    -0.011 C 
HETATM   11  C   UNL     1       2.500  -0.866   0.000  1.00  0.00     0.040 A 
HETATM   12  C   UNL     1       2.500   0.134   0.000  1.00  0.00     0.038 A 
HETATM   13  O   UNL     1       1.500  -0.866   0.000  1.00  0.00     0.000 OA
HETATM   14  C   UNL     1       2.500  -1.866   0.000  1.00  0.00     0.206 A 
HETATM   15  O   UNL     1       1.840  -2.612   0.918  1.00  0.00    -0.197 OA
HETATM   16  H   UNL     1       5.162  -0.752   0.730  1.00  0.00     0.000 HD
ENDROOT
BRANCH  13  17
HETATM   17  C   UNL     1       0.169  -0.232  -0.246  1.00  0.00     0.047 C 
HETATM   18  C   UNL     1      -1.102  -0.967   0.062  1.00  0.00     0.164 C 
HETATM   19  C   UNL     1      -2.419  -0.242  -0.133  1.00  0.00     0.110 C 
HETATM   20  O   UNL     1      -1.096  -2.160   0.401  1.00  0.00    -0.292 OA
HETATM   21  C   UNL     1      -2.215   1.239   0.123  1.00  0.00     0.182 C 
HETATM   22  O   UNL     1      -1.228   1.746  -0.756  1.00  0.00    -0.362 OA
HETATM   23  C   UNL     1      -0.056   1.044  -0.665  1.00  0.00     0.150 C 
ENDBRANCH  13  17
BRANCH  14  24
HETATM   24  O   UNL     1       2.096  -2.480  -1.502  1.00  0.00    -0.357 OA
HETATM   25  C   UNL     1       2.980  -3.317  -2.334  1.00  0.00     0.205 C 
ENDBRANCH  14  24
TORSDOF 2
