REMARK  8 active torsions:
REMARK  status: ('A' for Active; 'I' for Inactive)
REMARK    1  A    between atoms: N_4  and  C_5 
REMARK    2  A    between atoms: C_5  and  C_6 
REMARK    3  A    between atoms: C_6  and  C_7 
REMARK    4  A    between atoms: C_7  and  C_8 
REMARK    5  A    between atoms: C_8  and  C_9 
REMARK    6  A    between atoms: C_9  and  C_10 
REMARK    7  A    between atoms: C_10  and  C_11 
REMARK    8  A    between atoms: C_11  and  O_13 
ROOT
HETATM    1  C   UNL     1      -1.459  -3.982  -0.205  1.00  0.00     0.021 C 
ENDROOT
BRANCH   1   2
HETATM    2  C   UNL     1      -2.045  -2.731   0.444  1.00  0.00     0.146 C 
BRANCH   2   3
HETATM    3  N   UNL     1      -1.172  -1.598   0.208  1.00  0.00    -0.283 N 
HETATM    4  C   UNL     1       0.099  -1.430   0.680  1.00  0.00     0.136 A 
HETATM    5  C   UNL     1       0.610  -0.424  -0.110  1.00  0.00     0.065 A 
HETATM    6  C   UNL     1       1.984   0.103  -0.189  1.00  0.00     0.073 C 
HETATM    7  N   UNL     1      -0.375   0.036  -0.943  1.00  0.00    -0.164 NA
HETATM    8  N   UNL     1      -1.467  -0.691  -0.736  1.00  0.00     0.004 NA
ENDBRANCH   2   3
ENDBRANCH   1   2
BRANCH   1   9
HETATM    9  C   UNL     1      -2.275  -5.245   0.055  1.00  0.00     0.002 C 
BRANCH   9  10
HETATM   10  C   UNL     1      -1.397  -6.472  -0.197  1.00  0.00     0.001 C 
BRANCH  10  11
HETATM   11  C   UNL     1      -2.128  -7.787   0.057  1.00  0.00     0.010 C 
BRANCH  11  12
HETATM   12  C   UNL     1      -1.143  -8.954  -0.018  1.00  0.00     0.110 C 
BRANCH  12  13
HETATM   13  C   UNL     1      -1.817 -10.281   0.206  1.00  0.00     0.139 C 
HETATM   14  O   UNL     1      -2.987 -10.480   0.476  1.00  0.00    -0.650 OA
BRANCH  13  15
HETATM   15  O   UNL     1      -0.953 -11.303   0.080  1.00  0.00    -0.776 OA
HETATM   16  H   UNL     1      -1.501 -12.100   0.249  1.00  0.00     0.167 HD
ENDBRANCH  13  15
ENDBRANCH  12  13
ENDBRANCH  11  12
ENDBRANCH  10  11
ENDBRANCH   9  10
ENDBRANCH   1   9
TORSDOF 8
