REMARK  5 active torsions:
REMARK  status: ('A' for Active; 'I' for Inactive)
REMARK    1  A    between atoms: C_7  and  O_8 
REMARK    2  A    between atoms: O_8  and  C_9 
REMARK    3  A    between atoms: C_9  and  N_11 
REMARK       I    between atoms: N_11  and  C_12 
REMARK    4  A    between atoms: C_12  and  C_14 
REMARK    5  A    between atoms: C_17  and  N_18 
ROOT
HETATM    1  N   UNL     1      -2.385  -0.206   0.250  1.00  0.00    -0.293 N 
HETATM    2  C   UNL     1      -1.082  -0.623   0.018  1.00  0.00     0.258 C 
HETATM    3  O   UNL     1      -0.759  -1.797  -0.126  1.00  0.00    -0.267 OA
HETATM    4  H   UNL     1      -2.529   0.652   0.758  1.00  0.00     0.172 HD
ENDROOT
BRANCH   1   5
HETATM    5  C   UNL     1      -3.561  -0.778  -0.211  1.00  0.00     0.222 C 
HETATM    6  S   UNL     1      -3.724  -1.963  -1.374  1.00  0.00    -0.032 SA
BRANCH   5   7
HETATM    7  O   UNL     1      -4.632  -0.096   0.319  1.00  0.00    -0.279 OA
BRANCH   7   8
HETATM    8  C   UNL     1      -6.005  -0.418   0.138  1.00  0.00     0.146 C 
HETATM    9  C   UNL     1      -6.556  -1.763   0.455  1.00  0.00     0.186 C 
HETATM   10  O   UNL     1      -5.938  -2.561   1.155  1.00  0.00    -0.290 OA
HETATM   11  C   UNL     1      -7.902  -2.073  -0.140  1.00  0.00     0.112 C 
HETATM   12  C   UNL     1      -8.781  -0.861   0.099  1.00  0.00     0.182 C 
HETATM   13  O   UNL     1      -8.231   0.342  -0.454  1.00  0.00    -0.360 OA
HETATM   14  C   UNL     1      -6.881   0.505  -0.277  1.00  0.00     0.175 C 
ENDBRANCH   7   8
ENDBRANCH   5   7
ENDBRANCH   1   5
BRANCH   2  15
HETATM   15  C   UNL     1       0.002   0.413   0.071  1.00  0.00     0.032 A 
HETATM   16  C   UNL     1       1.335  -0.039   0.071  1.00  0.00     0.019 A 
HETATM   17  C   UNL     1       2.405   0.861   0.046  1.00  0.00     0.037 A 
HETATM   18  C   UNL     1       2.147   2.235   0.022  1.00  0.00     0.102 A 
HETATM   19  C   UNL     1       0.823   2.704   0.025  1.00  0.00     0.037 A 
HETATM   20  C   UNL     1      -0.246   1.793   0.043  1.00  0.00     0.019 A 
BRANCH  18  21
HETATM   21  N   UNL     1       3.264   3.184  -0.027  1.00  0.00    -0.116 N 
HETATM   22  O   UNL     1       4.415   2.726  -0.037  1.00  0.00    -0.532 OA
HETATM   23  O   UNL     1       2.989   4.395  -0.059  1.00  0.00    -0.532 OA
ENDBRANCH  18  21
ENDBRANCH   2  15
TORSDOF 5
