REMARK  2 active torsions:
REMARK  status: ('A' for Active; 'I' for Inactive)
REMARK    1  A    between atoms: S_2  and  C_3 
REMARK    2  A    between atoms: C_3  and  C_5 
ROOT
HETATM    1  C   UNL     1       1.131  -0.838   0.000  1.00  0.00     0.079 A 
HETATM    2  C   UNL     1       0.414  -2.153   0.000  1.00  0.00     0.075 A 
HETATM    3  C   UNL     1       0.712  -3.589   0.000  1.00  0.00     0.074 C 
HETATM    4  N   UNL     1      -0.922  -1.965  -0.000  1.00  0.00    -0.132 NA
HETATM    5  O   UNL     1      -1.157  -0.659  -0.000  1.00  0.00    -0.217 OA
HETATM    6  C   UNL     1       0.000   0.000   0.000  1.00  0.00     0.091 A 
HETATM    7  C   UNL     1       0.000   1.000   0.000  1.00  0.00     0.080 C 
ENDROOT
BRANCH   1   8
HETATM    8  C   UNL     1       2.556  -0.055   0.000  1.00  0.00     0.223 C 
HETATM    9  O   UNL     1       2.678   1.164   0.000  1.00  0.00    -0.280 OA
BRANCH   8  10
HETATM   10  S   UNL     1       4.159  -0.724  -0.000  1.00  0.00    -0.091 SA
HETATM   11  C   UNL     1       3.916  -2.397   0.000  1.00  0.00     0.099 C 
ENDBRANCH   8  10
ENDBRANCH   1   8
TORSDOF 2
