REMARK  6 active torsions:
REMARK  status: ('A' for Active; 'I' for Inactive)
REMARK    1  A    between atoms: O_2  and  C_3 
REMARK    2  A    between atoms: C_3  and  C_5 
REMARK    3  A    between atoms: C_5  and  S_6 
REMARK    4  A    between atoms: C_5  and  C_8 
REMARK    5  A    between atoms: C_8  and  O_9 
REMARK    6  A    between atoms: C_8  and  C_10 
ROOT
HETATM    1  C   UNL     1      -0.573   1.284  -0.200  1.00  0.00     0.171 C 
ENDROOT
BRANCH   1   2
HETATM    2  C   UNL     1      -1.473   0.054   0.020  1.00  0.00     0.149 C 
BRANCH   2   3
HETATM    3  C   UNL     1      -1.070  -1.157  -0.771  1.00  0.00     0.272 C 
HETATM    4  O   UNL     1      -0.362  -1.363  -1.731  1.00  0.00    -0.264 OA
BRANCH   3   5
HETATM    5  O   UNL     1      -1.732  -2.000   0.000  1.00  0.00    -0.326 OA
HETATM    6  C   UNL     1      -1.732  -3.000   0.000  1.00  0.00     0.213 C 
ENDBRANCH   3   5
ENDBRANCH   2   3
BRANCH   2   7
HETATM    7  S   UNL     1      -3.464   0.000   0.000  1.00  0.00    -0.279 SA
HETATM    8  C   UNL     1      -3.464   1.000   0.000  1.00  0.00     0.250 C 
ENDBRANCH   2   7
ENDBRANCH   1   2
BRANCH   1   9
HETATM    9  O   UNL     1      -0.813   1.910  -1.452  1.00  0.00    -0.389 OA
HETATM   10  H   UNL     1      -0.133   2.597  -1.564  1.00  0.00     0.210 HD
ENDBRANCH   1   9
BRANCH   1  11
HETATM   11  C   UNL     1       0.894   0.885   0.018  1.00  0.00    -0.028 A 
HETATM   12  C   UNL     1       1.793   0.752  -1.054  1.00  0.00     0.011 A 
HETATM   13  C   UNL     1       3.053   0.170  -0.867  1.00  0.00     0.024 A 
HETATM   14  C   UNL     1       3.424  -0.294   0.391  1.00  0.00     0.034 A 
HETATM   15  C   UNL     1       2.565  -0.146   1.475  1.00  0.00     0.024 A 
HETATM   16 CL   UNL     1       4.935  -1.090   0.600  1.00  0.00    -0.084 Cl
HETATM   17  C   UNL     1       1.317   0.457   1.295  1.00  0.00     0.011 A 
ENDBRANCH   1  11
TORSDOF 6
