REMARK  4 active torsions:
REMARK  status: ('A' for Active; 'I' for Inactive)
REMARK    1  A    between atoms: S_2  and  C_3 
REMARK       I    between atoms: C_3  and  N_5 
REMARK    2  A    between atoms: N_5  and  C_6 
REMARK    3  A    between atoms: C_12  and  O_13 
REMARK    4  A    between atoms: O_13  and  C_14 
ROOT
HETATM    1  C   UNL     1       3.822  -1.161  -0.231  1.00  0.00     0.069 A 
HETATM    2  C   UNL     1       5.078  -1.767  -0.337  1.00  0.00     0.034 A 
HETATM    3  C   UNL     1       5.244  -3.107   0.013  1.00  0.00     0.026 A 
HETATM    4  C   UNL     1       4.165  -3.829   0.515  1.00  0.00     0.036 A 
HETATM    5 CL   UNL     1       4.392  -5.458   1.016  1.00  0.00    -0.084 Cl
HETATM    6  C   UNL     1       2.916  -3.227   0.661  1.00  0.00     0.063 A 
HETATM    7  C   UNL     1       2.721  -1.907   0.245  1.00  0.00     0.104 A 
ENDROOT
BRANCH   7   8
HETATM    8  O   UNL     1       1.569  -1.232   0.579  1.00  0.00    -0.308 OA
BRANCH   8   9
HETATM    9  C   UNL     1       0.316  -1.663   0.201  1.00  0.00     0.076 A 
HETATM   10  C   UNL     1      -0.705  -0.752   0.511  1.00  0.00     0.037 A 
HETATM   11  C   UNL     1      -2.039  -1.046   0.234  1.00  0.00     0.003 A 
HETATM   12  C   UNL     1      -2.369  -2.266  -0.349  1.00  0.00     0.000 A 
HETATM   13  C   UNL     1      -1.359  -3.167  -0.687  1.00  0.00     0.003 A 
HETATM   14  C   UNL     1      -0.016  -2.857  -0.436  1.00  0.00     0.037 A 
ENDBRANCH   8   9
ENDBRANCH   7   8
BRANCH   1  15
HETATM   15  N   UNL     1       3.777   0.232  -0.460  1.00  0.00    -0.318 N 
HETATM   16  C   UNL     1       2.644   0.949  -0.766  1.00  0.00     0.253 C 
HETATM   17  O   UNL     1       1.729   0.574  -1.484  1.00  0.00    -0.263 OA
HETATM   18  H   UNL     1       4.623   0.754  -0.294  1.00  0.00     0.169 HD
BRANCH  16  19
HETATM   19  S   UNL     1       2.598   2.500   0.000  1.00  0.00    -0.213 SA
HETATM   20  C   UNL     1       3.464   3.000   0.000  1.00  0.00     0.276 C 
ENDBRANCH  16  19
ENDBRANCH   1  15
TORSDOF 4
