REMARK  4 active torsions:
REMARK  status: ('A' for Active; 'I' for Inactive)
REMARK    1  A    between atoms: C_2  and  C_3 
REMARK    2  A    between atoms: C_3  and  C_4 
REMARK    3  A    between atoms: C_3  and  O_6 
REMARK    4  A    between atoms: O_6  and  C_7 
ROOT
HETATM    1  C   UNL     1       2.145   0.835   0.214  1.00  0.00     0.144 C 
ENDROOT
BRANCH   1   2
HETATM    2  C   UNL     1       3.464   0.000   0.000  1.00  0.00     0.029 C 
HETATM    3  C   UNL     1       3.464  -1.000   0.000  1.00  0.00     0.007 C 
ENDBRANCH   1   2
BRANCH   1   4
HETATM    4  C   UNL     1       2.430   2.304  -0.179  1.00  0.00     0.147 C 
HETATM    5 CL   UNL     1       1.338   3.464   0.625  1.00  0.00    -0.128 Cl
ENDBRANCH   1   4
BRANCH   1   6
HETATM    6  O   UNL     1       1.112   0.253  -0.608  1.00  0.00    -0.322 OA
BRANCH   6   7
HETATM    7  C   UNL     1      -0.175   0.499  -0.272  1.00  0.00     0.398 C 
HETATM    8  O   UNL     1      -1.106  -0.200  -0.619  1.00  0.00    -0.276 OA
ENDBRANCH   6   7
ENDBRANCH   1   6
TORSDOF 4
