REMARK  2 active torsions:
REMARK  status: ('A' for Active; 'I' for Inactive)
REMARK    1  A    between atoms: S_2  and  C_3 
REMARK    2  A    between atoms: C_3  and  C_5 
ROOT
HETATM    1  C   UNL     1       0.678  -1.078   0.065  1.00  0.00     0.211 C 
HETATM    2  C   UNL     1      -0.524  -0.299   0.364  1.00  0.00     0.067 C 
HETATM    3  N   UNL     1      -1.509   0.263   0.611  1.00  0.00    -0.197 NA
ENDROOT
BRANCH   1   4
HETATM    4  C   UNL     1       1.905  -0.203  -0.009  1.00  0.00     0.168 C 
HETATM    5  O   UNL     1       1.868   1.015  -0.118  1.00  0.00    -0.287 OA
BRANCH   4   6
HETATM    6  S   UNL     1       3.464  -1.000   0.000  1.00  0.00    -0.231 SA
HETATM    7  C   UNL     1       3.464  -2.000   0.000  1.00  0.00     0.270 C 
ENDBRANCH   4   6
ENDBRANCH   1   4
TORSDOF 2
