REMARK  2 active torsions:
REMARK  status: ('A' for Active; 'I' for Inactive)
REMARK    1  A    between atoms: C_8  and  S_9 
REMARK    2  A    between atoms: S_9  and  C_10 
ROOT
HETATM    1  C   UNL     1       2.373   1.026  -0.306  1.00  0.00     0.071 C 
HETATM    2  C   UNL     1       1.055   0.256  -0.061  1.00  0.00     0.051 A 
HETATM    3  C   UNL     1       1.134  -1.242  -0.011  1.00  0.00     0.055 A 
HETATM    4  C   UNL     1       0.000  -2.000   0.000  1.00  0.00     0.052 A 
HETATM    5  C   UNL     1       0.000  -3.000   0.000  1.00  0.00     0.071 C 
HETATM    6  N   UNL     1      -1.192  -1.223   0.018  1.00  0.00    -0.062 N 
HETATM    7  N   UNL     1      -2.465  -1.687   0.024  1.00  0.00    -0.124 NA
HETATM    8  C   UNL     1      -3.187  -0.562   0.041  1.00  0.00     0.233 A 
HETATM    9  N   UNL     1      -2.459   0.587   0.057  1.00  0.00    -0.032 NA
HETATM   10  C   UNL     1      -1.198   0.198   0.046  1.00  0.00     0.752 A 
HETATM   11  N   UNL     1      -0.065   0.916  -0.028  1.00  0.00    -0.066 NA
ENDROOT
BRANCH   8  12
HETATM   12  S   UNL     1      -4.904  -0.693   0.024  1.00  0.00    -0.019 SA
BRANCH  12  13
HETATM   13  C   UNL     1      -5.366   0.993   0.006  1.00  0.00     0.312 C 
HETATM   14  O   UNL     1      -6.553   1.319  -0.002  1.00  0.00    -0.295 OA
ENDBRANCH  12  13
ENDBRANCH   8  12
TORSDOF 2
