REMARK  4 active torsions:
REMARK  status: ('A' for Active; 'I' for Inactive)
REMARK       I    between atoms: C_2  and  N_3 
REMARK    1  A    between atoms: C_2  and  O_13 
REMARK    2  A    between atoms: N_3  and  C_4 
REMARK    3  A    between atoms: C_6  and  C_7 
REMARK    4  A    between atoms: O_13  and  C_14 
ROOT
HETATM    1  O   UNL     1      -0.253  -3.678   1.046  1.00  0.00    -0.238 OA
HETATM    2  C   UNL     1       0.541  -2.863   0.589  1.00  0.00     0.366 C 
HETATM    3  N   UNL     1       1.829  -3.232   0.226  1.00  0.00    -0.331 N 
HETATM    4  H   UNL     1       2.036  -4.213   0.318  1.00  0.00     0.165 HD
ENDROOT
BRANCH   3   5
HETATM    5  C   UNL     1       2.626  -2.372  -0.595  1.00  0.00     0.096 A 
HETATM    6  C   UNL     1       3.495  -1.349   0.077  1.00  0.00     0.037 A 
HETATM    7  C   UNL     1       4.104  -2.373  -0.848  1.00  0.00     0.043 A 
BRANCH   7   8
HETATM    8  C   UNL     1       5.168  -3.281  -0.294  1.00  0.00    -0.052 A 
HETATM    9  C   UNL     1       5.016  -4.664  -0.131  1.00  0.00     0.007 A 
HETATM   10  C   UNL     1       6.091  -5.470   0.267  1.00  0.00     0.001 A 
HETATM   11  C   UNL     1       7.345  -4.908   0.498  1.00  0.00     0.000 A 
HETATM   12  C   UNL     1       7.522  -3.538   0.353  1.00  0.00     0.001 A 
HETATM   13  C   UNL     1       6.443  -2.740  -0.032  1.00  0.00     0.007 A 
ENDBRANCH   7   8
ENDBRANCH   3   5
BRANCH   2  14
HETATM   14  O   UNL     1       0.324  -1.549   0.332  1.00  0.00    -0.255 OA
BRANCH  14  15
HETATM   15  C   UNL     1      -0.880  -0.799   0.297  1.00  0.00     0.152 A 
HETATM   16  C   UNL     1      -0.716   0.655   0.153  1.00  0.00     0.205 A 
HETATM   17  C   UNL     1      -1.855   1.359   0.048  1.00  0.00     0.057 A 
HETATM   18  O   UNL     1       0.474   1.065   0.143  1.00  0.00    -0.286 OA
HETATM   19  C   UNL     1      -3.218   0.751   0.057  1.00  0.00     0.206 A 
HETATM   20  O   UNL     1      -3.298  -0.678   0.194  1.00  0.00    -0.356 OA
HETATM   21  C   UNL     1      -2.106  -1.350   0.301  1.00  0.00     0.176 A 
ENDBRANCH  14  15
ENDBRANCH   2  14
TORSDOF 4
