REMARK  3 active torsions:
REMARK  status: ('A' for Active; 'I' for Inactive)
REMARK    1  A    between atoms: N_4  and  C_5 
REMARK    2  A    between atoms: C_5  and  C_6 
REMARK    3  A    between atoms: C_11  and  C_12 
REMARK       I    between atoms: C_12  and  N_14 
ROOT
HETATM    1  C   UNL     1      -4.284  -1.619  -0.104  1.00  0.00     0.069 A 
HETATM    2  N   UNL     1      -3.577  -2.773   0.087  1.00  0.00    -0.263 NA
HETATM    3  C   UNL     1      -4.108  -3.951  -0.300  1.00  0.00     0.117 A 
HETATM    4  C   UNL     1      -5.369  -4.067  -0.844  1.00  0.00     0.020 A 
HETATM    5  C   UNL     1      -6.125  -2.910  -0.984  1.00  0.00     0.020 A 
HETATM    6  C   UNL     1      -5.596  -1.671  -0.586  1.00  0.00     0.059 A 
ENDROOT
BRANCH   1   7
HETATM    7  C   UNL     1      -3.605  -0.340   0.347  1.00  0.00     0.206 C 
BRANCH   7   8
HETATM    8  N   UNL     1      -2.178  -0.342   0.052  1.00  0.00    -0.278 N 
HETATM    9  C   UNL     1      -1.193  -1.105   0.614  1.00  0.00     0.136 C 
HETATM   10  C   UNL     1      -0.081  -0.822  -0.143  1.00  0.00     0.065 C 
HETATM   11  C   UNL     1       1.246  -1.464  -0.141  1.00  0.00     0.073 C 
HETATM   12  N   UNL     1      -0.383   0.185  -1.021  1.00  0.00    -0.164 NA
HETATM   13  N   UNL     1      -1.667   0.490  -0.877  1.00  0.00     0.005 NA
ENDBRANCH   7   8
ENDBRANCH   1   7
BRANCH   6  14
HETATM   14  C   UNL     1      -6.446  -0.471  -0.722  1.00  0.00     0.265 C 
HETATM   15  O   UNL     1      -5.998   0.503  -1.323  1.00  0.00    -0.267 OA
HETATM   16  N   UNL     1      -7.752  -0.362  -0.216  1.00  0.00    -0.282 N 
HETATM   17  C   UNL     1      -8.604   0.703  -0.414  1.00  0.00     0.216 A 
HETATM   18  C   UNL     1      -8.447  -1.249   0.581  1.00  0.00     0.120 A 
HETATM   19  N   UNL     1      -9.772   0.527   0.163  1.00  0.00    -0.254 NA
HETATM   20  C   UNL     1      -9.685  -0.686   0.784  1.00  0.00     0.135 A 
ENDBRANCH   6  14
TORSDOF 3
