REMARK  14 active torsions:
REMARK  status: ('A' for Active; 'I' for Inactive)
REMARK    1  A    between atoms: C_2  and  C_4 
REMARK    2  A    between atoms: C_4  and  C_5 
REMARK    3  A    between atoms: C_5  and  C_7 
REMARK    4  A    between atoms: C_7  and  O_8 
REMARK    5  A    between atoms: C_7  and  C_9 
REMARK    6  A    between atoms: C_9  and  C_11 
REMARK    7  A    between atoms: C_11  and  C_12 
REMARK    8  A    between atoms: C_11  and  C_26 
REMARK    9  A    between atoms: C_12  and  C_13 
REMARK   10  A    between atoms: C_13  and  O_14 
REMARK   11  A    between atoms: O_14  and  C_15 
REMARK   12  A    between atoms: C_15  and  N_17 
REMARK   13  A    between atoms: N_17  and  C_18 
REMARK   14  A    between atoms: C_26  and  C_28 
ROOT
HETATM    1  C   UNL     1       1.262  -0.269   0.703  1.00  0.00     0.135 C 
ENDROOT
BRANCH   1   2
HETATM    2  C   UNL     1       1.545   1.143   1.236  1.00  0.00     0.174 C 
HETATM    3  O   UNL     1       0.898   1.594   2.189  1.00  0.00    -0.294 OA
BRANCH   2   4
HETATM    4  C   UNL     1       2.689   1.990   0.632  1.00  0.00     0.258 C 
BRANCH   4   5
HETATM    5  C   UNL     1       2.337   3.064  -0.408  1.00  0.00     0.169 C 
HETATM    6  O   UNL     1       1.194   3.381  -0.725  1.00  0.00    -0.294 OA
BRANCH   5   7
HETATM    7  C   UNL     1       3.532   3.788  -1.055  1.00  0.00     0.159 C 
BRANCH   7   8
HETATM    8  C   UNL     1       4.330   4.500   0.000  1.00  0.00     0.130 C 
HETATM    9  C   UNL     1       5.196   5.000   0.000  1.00  0.00     0.091 C 
HETATM   10  O   UNL     1       3.760   4.574   1.116  1.00  0.00    -0.298 OA
ENDBRANCH   7   8
ENDBRANCH   5   7
ENDBRANCH   4   5
BRANCH   4  11
HETATM   11  O   UNL     1       3.826   1.319   0.107  1.00  0.00    -0.380 OA
HETATM   12  H   UNL     1       3.547   0.969  -0.764  1.00  0.00     0.211 HD
ENDBRANCH   4  11
ENDBRANCH   2   4
ENDBRANCH   1   2
BRANCH   1  13
HETATM   13  C   UNL     1       2.555  -1.067   0.653  1.00  0.00     0.047 C 
BRANCH  13  14
HETATM   14  C   UNL     1       2.502  -2.564   0.428  1.00  0.00     0.179 C 
BRANCH  14  15
HETATM   15  O   UNL     1       3.863  -3.081   0.245  1.00  0.00    -0.327 OA
BRANCH  15  16
HETATM   16  C   UNL     1       4.744  -2.381  -0.523  1.00  0.00     0.210 C 
HETATM   17  S   UNL     1       4.864  -2.736  -2.136  1.00  0.00    -0.033 SA
BRANCH  16  18
HETATM   18  N   UNL     1       5.500  -1.520   0.243  1.00  0.00    -0.352 N 
HETATM   19  H   UNL     1       5.235  -1.600   1.221  1.00  0.00     0.163 HD
BRANCH  18  20
HETATM   20  C   UNL     1       6.928  -1.000   0.000  1.00  0.00     0.043 C 
HETATM   21  C   UNL     1       6.848   0.148  -1.040  1.00  0.00     0.170 C 
HETATM   22  S   UNL     1       8.000   1.431  -0.554  1.00  0.00     0.146 S 
HETATM   23  C   UNL     1       8.519   0.682   0.960  1.00  0.00     0.143 C 
HETATM   24  O   UNL     1       9.116   1.463  -1.477  1.00  0.00    -0.228 OA
HETATM   25  O   UNL     1       7.269   2.633  -0.205  1.00  0.00    -0.228 OA
HETATM   26  C   UNL     1       7.314  -0.176   1.324  1.00  0.00     0.046 C 
HETATM   27  C   UNL     1       7.590  -1.749   0.000  1.00  0.00     0.039 C 
ENDBRANCH  18  20
ENDBRANCH  16  18
ENDBRANCH  15  16
ENDBRANCH  14  15
ENDBRANCH  13  14
ENDBRANCH   1  13
BRANCH   1  28
HETATM   28  C   UNL     1       0.617  -0.154  -0.666  1.00  0.00     0.174 C 
HETATM   29  O   UNL     1       1.298  -0.141  -1.695  1.00  0.00    -0.291 OA
BRANCH  28  30
HETATM   30  C   UNL     1      -0.808   0.276  -0.672  1.00  0.00     0.060 C 
HETATM   31  C   UNL     1      -1.781  -0.360   0.118  1.00  0.00     0.185 C 
HETATM   32  C   UNL     1      -2.948   0.399   0.321  1.00  0.00     0.056 C 
HETATM   33  O   UNL     1      -1.649  -1.536   0.638  1.00  0.00    -0.287 OA
HETATM   34  C   UNL     1      -3.139   1.682  -0.227  1.00  0.00     0.004 C 
HETATM   35  C   UNL     1      -2.189   2.228  -1.075  1.00  0.00     0.001 C 
HETATM   36  C   UNL     1      -1.030   1.509  -1.324  1.00  0.00     0.019 C 
ENDBRANCH  28  30
ENDBRANCH   1  28
TORSDOF 14
