REMARK  3 active torsions:
REMARK  status: ('A' for Active; 'I' for Inactive)
REMARK    1  A    between atoms: C_2  and  C_3 
REMARK    2  A    between atoms: C_3  and  N_4 
REMARK    3  A    between atoms: C_8  and  S_9 
ROOT
HETATM    1  N   UNL     1       1.770  -0.435   0.114  1.00  0.00    -0.242 N 
HETATM    2  N   UNL     1       2.160  -1.699  -0.169  1.00  0.00    -0.163 NA
HETATM    3  C   UNL     1       1.018  -2.376  -0.040  1.00  0.00     0.258 A 
HETATM    4  N   UNL     1      -0.076  -1.629   0.273  1.00  0.00    -0.215 NA
HETATM    5  C   UNL     1       0.414  -0.414   0.350  1.00  0.00     0.186 A 
ENDROOT
BRANCH   1   6
HETATM    6  C   UNL     1       2.641   0.729  -0.062  1.00  0.00     0.180 C 
BRANCH   6   7
HETATM    7  C   UNL     1       4.145   0.597  -0.049  1.00  0.00    -0.015 C 
HETATM    8  C   UNL     1       4.936  -0.487  -0.039  1.00  0.00     0.008 C 
ENDBRANCH   6   7
ENDBRANCH   1   6
BRANCH   5   9
HETATM    9  S   UNL     1      -0.490   1.031   0.655  1.00  0.00    -0.095 SA
HETATM   10  C   UNL     1      -2.116   0.604  -0.012  1.00  0.00     0.099 C 
ENDBRANCH   5   9
TORSDOF 3
