REMARK  13 active torsions:
REMARK  status: ('A' for Active; 'I' for Inactive)
REMARK    1  A    between atoms: C_2  and  C_4 
REMARK    2  A    between atoms: C_4  and  C_5 
REMARK    3  A    between atoms: C_5  and  C_15 
REMARK    4  A    between atoms: C_6  and  C_7 
REMARK    5  A    between atoms: C_15  and  O_16 
REMARK    6  A    between atoms: C_15  and  C_17 
REMARK    7  A    between atoms: C_17  and  C_19 
REMARK    8  A    between atoms: C_19  and  C_20 
REMARK    9  A    between atoms: C_19  and  C_23 
REMARK   10  A    between atoms: C_20  and  C_21 
REMARK   11  A    between atoms: C_21  and  O_22 
REMARK   12  A    between atoms: C_23  and  C_25 
REMARK   13  A    between atoms: C_30  and  O_31 
ROOT
HETATM    1  C   UNL     1      -2.503  -1.318   0.115  1.00  0.00     0.218 C 
ENDROOT
BRANCH   1   2
HETATM    2  C   UNL     1      -2.631  -2.644  -0.623  1.00  0.00    -0.037 C 
HETATM    3  C   UNL     1      -3.801  -3.185  -1.031  1.00  0.00     0.018 C 
BRANCH   2   4
HETATM    4  C   UNL     1      -1.340  -3.376  -0.914  1.00  0.00     0.115 C 
BRANCH   4   5
HETATM    5  C   UNL     1      -1.106  -4.523   0.064  1.00  0.00     0.127 C 
HETATM    6  C   UNL     1      -2.061  -5.690   0.022  1.00  0.00     0.091 C 
HETATM    7  O   UNL     1      -0.162  -4.510   0.864  1.00  0.00    -0.298 OA
ENDBRANCH   4   5
ENDBRANCH   2   4
BRANCH   3   8
HETATM    8  C   UNL     1      -5.125  -2.663  -0.653  1.00  0.00    -0.029 C 
HETATM    9  C   UNL     1      -6.062  -3.500   0.000  1.00  0.00    -0.046 C 
HETATM   10  C   UNL     1      -7.258  -2.747   0.393  1.00  0.00    -0.055 C 
HETATM   11  C   UNL     1      -6.062  -4.500   0.000  1.00  0.00     0.049 C 
HETATM   12  C   UNL     1      -7.467  -1.373   0.130  1.00  0.00     0.007 C 
HETATM   13  C   UNL     1      -8.503  -3.448   0.950  1.00  0.00     0.049 C 
HETATM   14  C   UNL     1      -6.556  -0.671  -0.623  1.00  0.00     0.001 C 
HETATM   15  C   UNL     1      -5.411  -1.325  -1.038  1.00  0.00     0.012 C 
ENDBRANCH   3   8
ENDBRANCH   1   2
BRANCH   1  16
HETATM   16  O   UNL     1      -1.950  -1.582   1.380  1.00  0.00    -0.384 OA
HETATM   17  H   UNL     1      -2.399  -1.008   2.027  1.00  0.00     0.211 HD
ENDBRANCH   1  16
BRANCH   1  18
HETATM   18  C   UNL     1      -1.804  -0.240  -0.786  1.00  0.00     0.171 C 
HETATM   19  O   UNL     1      -1.448  -0.477  -1.946  1.00  0.00    -0.294 OA
BRANCH  18  20
HETATM   20  C   UNL     1      -1.647   1.173  -0.231  1.00  0.00     0.135 C 
BRANCH  20  21
HETATM   21  C   UNL     1      -3.038   1.757   0.071  1.00  0.00     0.046 C 
BRANCH  21  22
HETATM   22  C   UNL     1      -3.143   3.280   0.176  1.00  0.00     0.165 C 
BRANCH  22  23
HETATM   23  O   UNL     1      -1.959   3.949  -0.211  1.00  0.00    -0.401 OA
HETATM   24  H   UNL     1      -1.345   3.905   0.546  1.00  0.00     0.209 HD
ENDBRANCH  22  23
ENDBRANCH  21  22
ENDBRANCH  20  21
BRANCH  20  25
HETATM   25  C   UNL     1      -0.705   1.216   0.961  1.00  0.00     0.173 C 
HETATM   26  O   UNL     1      -1.008   1.722   2.038  1.00  0.00    -0.291 OA
BRANCH  25  27
HETATM   27  C   UNL     1       0.614   0.557   0.792  1.00  0.00     0.044 A 
HETATM   28  C   UNL     1       1.544   1.019  -0.140  1.00  0.00     0.079 A 
HETATM   29  C   UNL     1       2.679   0.260  -0.427  1.00  0.00     0.037 A 
HETATM   30  C   UNL     1       2.870  -0.970   0.213  1.00  0.00     0.003 A 
HETATM   31  C   UNL     1       1.964  -1.406   1.179  1.00  0.00     0.001 A 
HETATM   32  C   UNL     1       0.855  -0.625   1.493  1.00  0.00     0.018 A 
BRANCH  28  33
HETATM   33  O   UNL     1       1.348   2.220  -0.755  1.00  0.00    -0.360 OA
HETATM   34  H   UNL     1       2.146   2.452  -1.263  1.00  0.00     0.217 HD
ENDBRANCH  28  33
ENDBRANCH  25  27
ENDBRANCH  20  25
ENDBRANCH  18  20
ENDBRANCH   1  18
TORSDOF 13
