REMARK  7 active torsions:
REMARK  status: ('A' for Active; 'I' for Inactive)
REMARK    1  A    between atoms: O_2  and  C_3 
REMARK    2  A    between atoms: C_3  and  C_5 
REMARK    3  A    between atoms: C_5  and  O_6 
REMARK    4  A    between atoms: C_5  and  C_14 
REMARK    5  A    between atoms: O_6  and  C_7 
REMARK    6  A    between atoms: C_14  and  O_15 
REMARK    7  A    between atoms: C_14  and  C_16 
ROOT
HETATM    1  C   UNL     1      -0.871  -2.710   0.514  1.00  0.00     0.261 C 
ENDROOT
BRANCH   1   2
HETATM    2  C   UNL     1       0.158  -3.840   0.417  1.00  0.00     0.291 C 
HETATM    3  O   UNL     1       0.200  -4.779   1.208  1.00  0.00    -0.262 OA
BRANCH   2   4
HETATM    4  O   UNL     1       1.078  -3.659  -0.570  1.00  0.00    -0.324 OA
HETATM    5  C   UNL     1       2.162  -4.589  -0.633  1.00  0.00     0.213 C 
ENDBRANCH   2   4
ENDBRANCH   1   2
BRANCH   1   6
HETATM    6  O   UNL     1      -2.087  -3.355   0.119  1.00  0.00    -0.327 OA
BRANCH   6   7
HETATM    7  C   UNL     1      -3.321  -2.769   0.332  1.00  0.00     0.141 C 
HETATM    8  C   UNL     1      -4.438  -3.311  -0.467  1.00  0.00     0.205 C 
HETATM    9  C   UNL     1      -5.601  -2.652  -0.374  1.00  0.00     0.057 C 
HETATM   10  O   UNL     1      -4.155  -4.329  -1.155  1.00  0.00    -0.286 OA
HETATM   11  C   UNL     1      -5.792  -1.415   0.438  1.00  0.00     0.206 C 
HETATM   12  O   UNL     1      -4.754  -1.106   1.380  1.00  0.00    -0.356 OA
HETATM   13  C   UNL     1      -3.559  -1.756   1.191  1.00  0.00     0.176 C 
ENDBRANCH   6   7
ENDBRANCH   1   6
BRANCH   1  14
HETATM   14  C   UNL     1      -0.630  -1.444  -0.347  1.00  0.00     0.193 C 
BRANCH  14  15
HETATM   15  O   UNL     1      -0.636  -1.752  -1.747  1.00  0.00    -0.388 OA
HETATM   16  H   UNL     1      -1.456  -2.277  -1.886  1.00  0.00     0.210 HD
ENDBRANCH  14  15
BRANCH  14  17
HETATM   17  C   UNL     1       0.540  -0.518  -0.047  1.00  0.00     0.012 A 
HETATM   18  C   UNL     1       0.427   0.832  -0.419  1.00  0.00     0.125 A 
HETATM   19  C   UNL     1       1.479   1.736  -0.270  1.00  0.00     0.043 A 
HETATM   20  F   UNL     1      -0.725   1.297  -0.925  1.00  0.00    -0.205 F 
HETATM   21  C   UNL     1       2.691   1.305   0.256  1.00  0.00     0.003 A 
HETATM   22  C   UNL     1       2.825  -0.019   0.664  1.00  0.00     0.001 A 
HETATM   23  C   UNL     1       1.756  -0.916   0.529  1.00  0.00     0.013 A 
ENDBRANCH  14  17
ENDBRANCH   1  14
TORSDOF 7
