REMARK  1 active torsions:
REMARK  status: ('A' for Active; 'I' for Inactive)
REMARK    1  A    between atoms: S_2  and  C_3 
ROOT
HETATM    1  C   UNL     1       0.470   1.105  -0.167  1.00  0.00     0.096 A 
HETATM    2  C   UNL     1       1.664   0.390  -0.100  1.00  0.00     0.046 A 
HETATM    3  C   UNL     1       1.626  -1.009   0.002  1.00  0.00    -0.055 A 
HETATM    4  C   UNL     1       2.883  -1.827   0.030  1.00  0.00     0.048 C 
HETATM    5  C   UNL     1       0.384  -1.641   0.007  1.00  0.00     0.070 A 
HETATM    6  C   UNL     1      -0.746  -0.859  -0.059  1.00  0.00     0.211 A 
HETATM    7  F   UNL     1      -1.945  -1.462  -0.048  1.00  0.00    -0.184 F 
HETATM    8  N   UNL     1      -0.733   0.486  -0.140  1.00  0.00    -0.214 NA
ENDROOT
BRANCH   1   9
HETATM    9  S   UNL     1       0.324   2.872  -0.348  1.00  0.00    -0.115 SA
HETATM   10  C   UNL     1       1.952   3.537   0.079  1.00  0.00     0.097 C 
ENDBRANCH   1   9
TORSDOF 1
