REMARK  5 active torsions:
REMARK  status: ('A' for Active; 'I' for Inactive)
REMARK    1  A    between atoms: S_2  and  C_3 
REMARK    2  A    between atoms: C_3  and  C_4 
REMARK    3  A    between atoms: C_4  and  N_5 
REMARK    4  A    between atoms: N_5  and  C_6 
REMARK    5  A    between atoms: C_6  and  S_8 
ROOT
HETATM    1  N   UNL     1       1.068   2.227  -2.062  1.00  0.00    -0.375 N 
HETATM    2  H   UNL     1       1.126   2.889  -2.836  1.00  0.00     0.161 HD
ENDROOT
BRANCH   1   3
HETATM    3  C   UNL     1       2.241   1.871  -1.319  1.00  0.00     0.128 C 
BRANCH   3   4
HETATM    4  C   UNL     1       3.691   2.013  -1.669  1.00  0.00     0.058 C 
BRANCH   4   5
HETATM    5  S   UNL     1       4.330   1.500   0.000  1.00  0.00    -0.293 SA
HETATM    6  C   UNL     1       4.330   0.500   0.000  1.00  0.00     0.247 C 
ENDBRANCH   4   5
ENDBRANCH   3   4
ENDBRANCH   1   3
BRANCH   1   7
HETATM    7  C   UNL     1      -0.151   2.140  -1.399  1.00  0.00     0.134 C 
HETATM    8  S   UNL     1      -1.515   2.808  -2.075  1.00  0.00    -0.053 SA
BRANCH   7   9
HETATM    9  S   UNL     1      -0.199   1.441   0.236  1.00  0.00    -0.105 SA
HETATM   10  C   UNL     1      -0.405  -0.319  -0.095  1.00  0.00     0.098 C 
ENDBRANCH   7   9
ENDBRANCH   1   7
TORSDOF 5
