REMARK  3 active torsions:
REMARK  status: ('A' for Active; 'I' for Inactive)
REMARK    1  A    between atoms: O_2  and  C_3 
REMARK    2  A    between atoms: C_3  and  C_4 
REMARK    3  A    between atoms: C_4  and  S_6 
ROOT
HETATM    1  C   UNL     1      -1.369   2.076   0.008  1.00  0.00     0.209 C 
HETATM    2  O   UNL     1      -2.534   1.503   0.022  1.00  0.00    -0.283 OA
ENDROOT
BRANCH   1   3
HETATM    3  C   UNL     1      -1.076   3.564  -0.251  1.00  0.00     0.257 C 
BRANCH   3   4
HETATM    4  O   UNL     1       0.134   4.083   0.431  1.00  0.00    -0.388 OA
HETATM    5  C   UNL     1       1.404   3.807  -0.293  1.00  0.00     0.202 C 
ENDBRANCH   3   4
ENDBRANCH   1   3
BRANCH   1   6
HETATM    6  S   UNL     1       0.000   1.000   0.000  1.00  0.00    -0.095 SA
HETATM    7  C   UNL     1       0.000   0.000   0.000  1.00  0.00     0.099 C 
ENDBRANCH   1   6
TORSDOF 3
