REMARK  1 active torsions:
REMARK  status: ('A' for Active; 'I' for Inactive)
REMARK    1  A    between atoms: N_6  and  C_8 
ROOT
HETATM    1  C   UNL     1       2.598  -1.500   0.000  1.00  0.00     0.033 C 
HETATM    2  C   UNL     1       2.598  -0.500   0.000  1.00  0.00     0.117 A 
HETATM    3  C   UNL     1       3.464   0.000   0.000  1.00  0.00     0.047 A 
HETATM    4  C   UNL     1       3.464   1.000   0.000  1.00  0.00     0.102 A 
HETATM    5  N   UNL     1       3.464   2.000   0.000  1.00  0.00    -0.183 N 
HETATM    6  N   UNL     1       1.732   0.000   0.000  1.00  0.00    -0.357 N 
HETATM    7  C   UNL     1       1.732   1.000   0.000  1.00  0.00     0.175 A 
ENDROOT
BRANCH   6   8
HETATM    8  C   UNL     1       0.257  -0.574   0.000  1.00  0.00     0.350 C 
HETATM    9  O   UNL     1      -0.809   0.049  -0.000  1.00  0.00    -0.284 OA
ENDBRANCH   6   8
TORSDOF 1
