REMARK  3 active torsions:
REMARK  status: ('A' for Active; 'I' for Inactive)
REMARK    1  A    between atoms: N_1  and  C_2 
REMARK    2  A    between atoms: C_9  and  S_10 
REMARK    3  A    between atoms: S_10  and  C_11 
ROOT
HETATM    1  C   UNL     1       0.015  -1.209  -0.000  1.00  0.00     0.044 A 
HETATM    2  C   UNL     1      -1.258  -1.831   0.000  1.00  0.00     0.056 A 
HETATM    3  C   UNL     1      -2.452  -1.109  -0.000  1.00  0.00     0.058 A 
HETATM    4 CL   UNL     1      -3.936  -1.991  -0.000  1.00  0.00    -0.082 Cl
HETATM    5  C   UNL     1      -2.400   0.275  -0.000  1.00  0.00     0.057 A 
HETATM    6 CL   UNL     1      -3.818   1.261  -0.000  1.00  0.00    -0.083 Cl
HETATM    7  C   UNL     1      -1.156   0.911  -0.000  1.00  0.00     0.046 A 
HETATM    8  C   UNL     1       0.075   0.200   0.000  1.00  0.00     0.035 A 
ENDROOT
BRANCH   1   9
HETATM    9  N   UNL     1       1.086  -2.085   0.000  1.00  0.00    -0.398 N 
HETATM   10  H   UNL     1       0.907  -3.084  -0.000  1.00  0.00     0.156 HD
HETATM   11  H   UNL     1       2.052  -1.840  -0.000  1.00  0.00     0.156 HD
ENDBRANCH   1   9
BRANCH   8  12
HETATM   12  S   UNL     1       1.438   1.357   0.000  1.00  0.00    -0.059 SA
BRANCH  12  13
HETATM   13  C   UNL     1       3.002   0.614   0.000  1.00  0.00     0.309 C 
HETATM   14  O   UNL     1       4.022   1.298  -0.000  1.00  0.00    -0.295 OA
ENDBRANCH  12  13
ENDBRANCH   8  12
TORSDOF 3
