REMARK  2 active torsions:
REMARK  status: ('A' for Active; 'I' for Inactive)
REMARK    1  A    between atoms: S_2  and  C_3 
REMARK    2  A    between atoms: C_3  and  C_5 
ROOT
HETATM    1  C   UNL     1      -1.302  -0.294   0.998  1.00  0.00     0.098 C 
HETATM    2  C   UNL     1      -1.716   0.818   1.996  1.00  0.00     0.283 C 
HETATM    3  N   UNL     1      -1.669   2.122   1.357  1.00  0.00     0.084 N 
HETATM    4  C   UNL     1      -1.195   2.004  -0.016  1.00  0.00     0.270 C 
HETATM    5  C   UNL     1       0.000   1.000   0.000  1.00  0.00     0.035 C 
HETATM    6  C   UNL     1       0.000   0.000   0.000  1.00  0.00    -0.003 C 
HETATM    7  C   UNL     1       1.525  -0.377   0.476  1.00  0.00     0.011 C 
HETATM    8  H   UNL     1      -2.547   2.627   1.411  1.00  0.00     0.315 HD
ENDROOT
BRANCH   1   9
HETATM    9  C   UNL     1      -1.390  -1.663   1.678  1.00  0.00     0.191 C 
HETATM   10  O   UNL     1      -0.890  -1.852   2.797  1.00  0.00    -0.285 OA
BRANCH   9  11
HETATM   11  S   UNL     1      -2.170  -2.985   0.826  1.00  0.00    -0.097 SA
HETATM   12  C   UNL     1      -3.399  -2.165  -0.214  1.00  0.00     0.098 C 
ENDBRANCH   9  11
ENDBRANCH   1   9
TORSDOF 2
