REMARK  8 active torsions:
REMARK  status: ('A' for Active; 'I' for Inactive)
REMARK    1  A    between atoms: C_2  and  C_3 
REMARK    2  A    between atoms: C_3  and  O_4 
REMARK    3  A    between atoms: C_3  and  C_5 
REMARK    4  A    between atoms: C_5  and  N_6 
REMARK    5  A    between atoms: N_6  and  C_7 
REMARK    6  A    between atoms: C_7  and  C_8 
REMARK    7  A    between atoms: C_8  and  S_9 
REMARK    8  A    between atoms: S_9  and  C_10 
ROOT
HETATM    1  N   UNL     1       4.190   0.537  -0.356  1.00  0.00     0.086 N 
HETATM    2  H   UNL     1       4.313   1.331   0.280  1.00  0.00     0.316 HD
ENDROOT
BRANCH   1   3
HETATM    3  C   UNL     1       5.391  -0.308  -0.178  1.00  0.00     0.305 C 
BRANCH   3   4
HETATM    4  C   UNL     1       6.677   0.550  -0.287  1.00  0.00     0.168 C 
BRANCH   4   5
HETATM    5  C   UNL     1       7.965  -0.144   0.063  1.00  0.00    -0.004 C 
HETATM    6  C   UNL     1       8.181  -1.463   0.155  1.00  0.00     0.009 C 
ENDBRANCH   4   5
BRANCH   4   7
HETATM    7  O   UNL     1       6.545   1.655   0.621  1.00  0.00    -0.390 OA
HETATM    8  H   UNL     1       7.074   2.378   0.245  1.00  0.00     0.210 HD
ENDBRANCH   4   7
ENDBRANCH   3   4
ENDBRANCH   1   3
BRANCH   1   9
HETATM    9  C   UNL     1       2.973  -0.207  -0.014  1.00  0.00     0.280 C 
BRANCH   9  10
HETATM   10  C   UNL     1       1.768   0.740   0.019  1.00  0.00     0.111 C 
BRANCH  10  11
HETATM   11  S   UNL     1       0.247  -0.171   0.415  1.00  0.00    -0.100 SA
BRANCH  11  12
HETATM   12  C   UNL     1      -0.908   1.130   0.188  1.00  0.00     0.304 C 
HETATM   13  O   UNL     1      -2.116   0.920   0.184  1.00  0.00    -0.295 OA
ENDBRANCH  11  12
ENDBRANCH  10  11
ENDBRANCH   9  10
ENDBRANCH   1   9
TORSDOF 8
