REMARK  4 active torsions:
REMARK  status: ('A' for Active; 'I' for Inactive)
REMARK    1  A    between atoms: S_2  and  C_3 
REMARK       I    between atoms: C_3  and  N_5 
REMARK    2  A    between atoms: N_5  and  C_6 
REMARK    3  A    between atoms: C_6  and  C_7 
REMARK    4  A    between atoms: C_7  and  C_8 
ROOT
HETATM    1  C   UNL     1       0.659  -0.741   0.085  1.00  0.00     0.126 C 
ENDROOT
BRANCH   1   2
HETATM    2  N   UNL     1       1.307  -1.933  -0.395  1.00  0.00    -0.352 N 
HETATM    3  C   UNL     1       2.591  -1.767  -0.866  1.00  0.00     0.279 C 
HETATM    4  O   UNL     1       2.925  -0.803  -1.540  1.00  0.00    -0.260 OA
HETATM    5  H   UNL     1       1.157  -2.774   0.140  1.00  0.00     0.163 HD
BRANCH   3   6
HETATM    6  S   UNL     1       3.800  -2.839  -0.251  1.00  0.00    -0.074 SA
HETATM    7  C   UNL     1       3.045  -4.390   0.216  1.00  0.00     0.100 C 
ENDBRANCH   3   6
ENDBRANCH   1   2
BRANCH   1   8
HETATM    8  C   UNL     1      -0.793  -0.948   0.494  1.00  0.00     0.051 C 
BRANCH   8   9
HETATM    9  C   UNL     1      -1.778  -0.619  -0.634  1.00  0.00     0.123 C 
HETATM   10  C   UNL     1      -3.208  -0.571  -0.123  1.00  0.00     0.034 C 
HETATM   11  C   UNL     1      -3.440   0.889   0.227  1.00  0.00     0.029 C 
HETATM   12  C   UNL     1      -2.215   1.619  -0.283  1.00  0.00     0.168 C 
HETATM   13  O   UNL     1      -1.539   0.701  -1.144  1.00  0.00    -0.386 OA
ENDBRANCH   8   9
ENDBRANCH   1   8
TORSDOF 4
