REMARK  15 active torsions:
REMARK  status: ('A' for Active; 'I' for Inactive)
REMARK    1  A    between atoms: C_2  and  C_4 
REMARK    2  A    between atoms: C_4  and  C_5 
REMARK    3  A    between atoms: C_5  and  C_7 
REMARK    4  A    between atoms: C_7  and  O_8 
REMARK    5  A    between atoms: C_7  and  C_9 
REMARK    6  A    between atoms: C_9  and  C_11 
REMARK    7  A    between atoms: C_11  and  C_12 
REMARK    8  A    between atoms: C_11  and  C_15 
REMARK    9  A    between atoms: C_12  and  C_13 
REMARK   10  A    between atoms: C_13  and  O_14 
REMARK   11  A    between atoms: C_15  and  C_17 
REMARK   12  A    between atoms: C_22  and  O_23 
REMARK   13  A    between atoms: O_23  and  C_24 
REMARK   14  A    between atoms: N_26  and  C_27 
REMARK   15  A    between atoms: C_29  and  C_30 
ROOT
HETATM    1  C   UNL     1       5.953  -1.031  -0.379  1.00  0.00     0.044 C 
HETATM    2  C   UNL     1       7.257  -0.627  -0.679  1.00  0.00     0.018 C 
HETATM    3  C   UNL     1       7.674   0.683  -0.428  1.00  0.00     0.001 C 
HETATM    4  C   UNL     1       6.788   1.609   0.116  1.00  0.00     0.003 C 
HETATM    5  C   UNL     1       5.460   1.250   0.335  1.00  0.00     0.038 C 
HETATM    6  C   UNL     1       5.044  -0.049   0.031  1.00  0.00     0.092 C 
ENDROOT
BRANCH   1   7
HETATM    7  C   UNL     1       5.632  -2.484  -0.518  1.00  0.00     0.173 C 
HETATM    8  O   UNL     1       6.296  -3.173  -1.298  1.00  0.00    -0.291 OA
BRANCH   7   9
HETATM    9  C   UNL     1       4.674  -3.164   0.452  1.00  0.00     0.135 C 
BRANCH   9  10
HETATM   10  C   UNL     1       5.412  -3.814   1.618  1.00  0.00     0.174 C 
HETATM   11  O   UNL     1       4.854  -3.893   2.718  1.00  0.00    -0.294 OA
BRANCH  10  12
HETATM   12  C   UNL     1       6.802  -4.437   1.395  1.00  0.00     0.258 C 
BRANCH  12  13
HETATM   13  C   UNL     1       7.921  -3.390   1.387  1.00  0.00     0.169 C 
HETATM   14  O   UNL     1       7.842  -2.383   2.084  1.00  0.00    -0.294 OA
BRANCH  13  15
HETATM   15  C   UNL     1       9.126  -3.711   0.526  1.00  0.00     0.159 C 
BRANCH  15  16
HETATM   16  C   UNL     1      10.238  -2.690   0.492  1.00  0.00     0.130 C 
HETATM   17  C   UNL     1      11.629  -3.210   0.237  1.00  0.00     0.091 C 
HETATM   18  O   UNL     1      10.046  -1.476   0.539  1.00  0.00    -0.298 OA
ENDBRANCH  15  16
ENDBRANCH  13  15
ENDBRANCH  12  13
BRANCH  12  19
HETATM   19  O   UNL     1       6.848  -5.330   0.295  1.00  0.00    -0.380 OA
HETATM   20  H   UNL     1       6.702  -4.819  -0.531  1.00  0.00     0.211 HD
ENDBRANCH  12  19
ENDBRANCH  10  12
ENDBRANCH   9  10
BRANCH   9  21
HETATM   21  C   UNL     1       3.843  -4.222  -0.298  1.00  0.00     0.046 C 
BRANCH  21  22
HETATM   22  C   UNL     1       2.682  -4.783   0.517  1.00  0.00     0.165 C 
BRANCH  22  23
HETATM   23  O   UNL     1       2.027  -5.772  -0.270  1.00  0.00    -0.401 OA
HETATM   24  H   UNL     1       1.418  -6.248   0.322  1.00  0.00     0.209 HD
ENDBRANCH  22  23
ENDBRANCH  21  22
ENDBRANCH   9  21
ENDBRANCH   7   9
ENDBRANCH   1   7
BRANCH   6  25
HETATM   25  O   UNL     1       3.654  -0.285   0.025  1.00  0.00    -0.283 OA
BRANCH  25  26
HETATM   26  C   UNL     1       3.012  -0.421  -1.208  1.00  0.00     0.221 C 
HETATM   27  S   UNL     1       3.643   0.050  -2.682  1.00  0.00    -0.032 SA
HETATM   28  N   UNL     1       1.855  -1.140  -1.174  1.00  0.00    -0.312 N 
HETATM   29  H   UNL     1       1.631  -1.576  -2.065  1.00  0.00     0.170 HD
BRANCH  28  30
HETATM   30  C   UNL     1       0.731  -0.858  -0.416  1.00  0.00     0.128 C 
HETATM   31  N   UNL     1       0.492   0.102   0.543  1.00  0.00    -0.258 N 
HETATM   32  N   UNL     1      -0.824   0.209   0.850  1.00  0.00    -0.175 NA
HETATM   33  C   UNL     1       1.376   1.082   1.124  1.00  0.00     0.182 C 
HETATM   34  C   UNL     1      -1.431  -0.685   0.064  1.00  0.00     0.062 C 
HETATM   35  C   UNL     1      -0.490  -1.455  -0.644  1.00  0.00     0.079 C 
BRANCH  34  36
HETATM   36  C   UNL     1      -2.923  -0.740  -0.103  1.00  0.00     0.031 C 
HETATM   37  C   UNL     1      -3.631   0.547   0.326  1.00  0.00     0.016 C 
HETATM   38  C   UNL     1      -3.537  -1.956   0.586  1.00  0.00     0.016 C 
ENDBRANCH  34  36
ENDBRANCH  28  30
ENDBRANCH  25  26
ENDBRANCH   6  25
TORSDOF 15
