REMARK  6 active torsions:
REMARK  status: ('A' for Active; 'I' for Inactive)
REMARK    1  A    between atoms: S_2  and  C_3 
REMARK    2  A    between atoms: C_3  and  C_4 
REMARK    3  A    between atoms: C_4  and  C_5 
REMARK    4  A    between atoms: C_5  and  N_6 
REMARK    5  A    between atoms: N_6  and  C_7 
REMARK    6  A    between atoms: C_7  and  S_9 
ROOT
HETATM    1  N   UNL     1       2.438   0.997   0.385  1.00  0.00    -0.376 N 
HETATM    2  H   UNL     1       2.631   0.178   0.949  1.00  0.00     0.160 HD
ENDROOT
BRANCH   1   3
HETATM    3  C   UNL     1       3.575   1.486  -0.380  1.00  0.00     0.121 C 
BRANCH   3   4
HETATM    4  C   UNL     1       3.917   0.484  -1.500  1.00  0.00     0.027 C 
BRANCH   4   5
HETATM    5  C   UNL     1       5.380   0.060  -1.590  1.00  0.00     0.040 C 
BRANCH   5   6
HETATM    6  S   UNL     1       6.062  -0.500   0.000  1.00  0.00    -0.294 SA
HETATM    7  C   UNL     1       6.062  -1.500   0.000  1.00  0.00     0.247 C 
ENDBRANCH   5   6
ENDBRANCH   4   5
ENDBRANCH   3   4
ENDBRANCH   1   3
BRANCH   1   8
HETATM    8  C   UNL     1       1.137   1.035  -0.051  1.00  0.00     0.134 C 
HETATM    9  S   UNL     1       0.463   2.236  -0.997  1.00  0.00    -0.053 SA
BRANCH   8  10
HETATM   10  S   UNL     1       0.378  -0.463   0.455  1.00  0.00    -0.105 SA
HETATM   11  C   UNL     1      -1.359  -0.035   0.614  1.00  0.00     0.098 C 
ENDBRANCH   8  10
ENDBRANCH   1   8
TORSDOF 6
