REMARK  2 active torsions:
REMARK  status: ('A' for Active; 'I' for Inactive)
REMARK    1  A    between atoms: S_2  and  C_3 
REMARK    2  A    between atoms: C_3  and  C_5 
ROOT
HETATM    1  C   UNL     1      -0.343  -0.277  -0.040  1.00  0.00     0.151 A 
HETATM    2  C   UNL     1      -0.997  -1.401   0.427  1.00  0.00     0.160 A 
HETATM    3  N   UNL     1      -2.357  -1.243   0.331  1.00  0.00    -0.246 NA
HETATM    4  C   UNL     1      -2.488  -0.043  -0.180  1.00  0.00     0.258 A 
HETATM    5  O   UNL     1      -1.321   0.599  -0.451  1.00  0.00    -0.298 OA
ENDROOT
BRANCH   1   6
HETATM    6  C   UNL     1       1.036   0.111  -0.174  1.00  0.00     0.243 C 
HETATM    7  O   UNL     1       1.458   0.993  -0.912  1.00  0.00    -0.278 OA
BRANCH   6   8
HETATM    8  S   UNL     1       2.150  -0.756   0.882  1.00  0.00    -0.090 SA
HETATM    9  C   UNL     1       2.421  -2.230  -0.122  1.00  0.00     0.099 C 
ENDBRANCH   6   8
ENDBRANCH   1   6
TORSDOF 2
