REMARK  7 active torsions:
REMARK  status: ('A' for Active; 'I' for Inactive)
REMARK    1  A    between atoms: C_2  and  O_3 
REMARK    2  A    between atoms: O_3  and  C_4 
REMARK    3  A    between atoms: C_4  and  O_6 
REMARK    4  A    between atoms: O_6  and  C_7 
REMARK    5  A    between atoms: C_7  and  C_8 
REMARK    6  A    between atoms: C_8  and  C_9 
REMARK    7  A    between atoms: C_9  and  O_10 
ROOT
HETATM    1  C   UNL     1      -0.606  -1.782   0.459  1.00  0.00     0.128 C 
HETATM    2  C   UNL     1      -0.295  -2.769  -0.678  1.00  0.00     0.073 C 
HETATM    3  C   UNL     1      -1.233  -3.954  -0.609  1.00  0.00     0.178 C 
HETATM    4  O   UNL     1      -2.596  -3.530  -0.713  1.00  0.00    -0.359 OA
HETATM    5  C   UNL     1      -2.909  -2.678   0.319  1.00  0.00     0.188 C 
HETATM    6  C   UNL     1      -2.049  -1.911   1.006  1.00  0.00     0.205 C 
HETATM    7  O   UNL     1      -2.242  -1.252   2.069  1.00  0.00    -0.288 OA
ENDROOT
BRANCH   1   8
HETATM    8  C   UNL     1      -0.350  -0.340  -0.027  1.00  0.00     0.073 C 
BRANCH   8   9
HETATM    9  C   UNL     1       1.088  -0.061  -0.431  1.00  0.00     0.184 C 
BRANCH   9  10
HETATM   10  O   UNL     1       1.187   1.164  -1.181  1.00  0.00    -0.298 OA
BRANCH  10  11
HETATM   11  C   UNL     1       1.010   2.287  -0.449  1.00  0.00     0.406 C 
HETATM   12  O   UNL     1       0.487   2.400   0.644  1.00  0.00    -0.230 OA
BRANCH  11  13
HETATM   13  O   UNL     1       1.838   3.238  -0.966  1.00  0.00    -0.298 OA
BRANCH  13  14
HETATM   14  C   UNL     1       2.867   3.623   0.000  1.00  0.00     0.176 C 
HETATM   15  C   UNL     1       3.574   2.915   0.000  1.00  0.00     0.034 C 
ENDBRANCH  13  14
ENDBRANCH  11  13
ENDBRANCH  10  11
ENDBRANCH   9  10
ENDBRANCH   8   9
ENDBRANCH   1   8
BRANCH   1  16
HETATM   16  O   UNL     1       0.291  -2.057   1.549  1.00  0.00    -0.382 OA
HETATM   17  H   UNL     1      -0.293  -1.795   2.303  1.00  0.00     0.211 HD
ENDBRANCH   1  16
TORSDOF 7
