REMARK  3 active torsions:
REMARK  status: ('A' for Active; 'I' for Inactive)
REMARK    1  A    between atoms: S_2  and  C_3 
REMARK    2  A    between atoms: C_6  and  S_7 
REMARK    3  A    between atoms: S_7  and  C_8 
ROOT
HETATM    1  C   UNL     1       0.773   0.460   0.183  1.00  0.00     0.191 A 
HETATM    2  N   UNL     1       1.855  -0.278   0.269  1.00  0.00    -0.122 NA
HETATM    3  N   UNL     1       1.469  -1.596   0.207  1.00  0.00    -0.121 NA
HETATM    4  C   UNL     1       0.160  -1.626   0.090  1.00  0.00     0.198 A 
HETATM    5  N   UNL     1      -0.330  -0.345   0.058  1.00  0.00    -0.306 N 
HETATM    6  C   UNL     1      -1.704   0.071  -0.070  1.00  0.00     0.161 C 
ENDROOT
BRANCH   4   7
HETATM    7  S   UNL     1      -0.840  -3.030   0.005  1.00  0.00    -0.021 SA
BRANCH   7   8
HETATM    8  C   UNL     1       0.387  -4.288  -0.003  1.00  0.00     0.312 C 
HETATM    9  O   UNL     1       0.067  -5.470  -0.037  1.00  0.00    -0.295 OA
ENDBRANCH   7   8
ENDBRANCH   4   7
BRANCH   1  10
HETATM   10  S   UNL     1       0.693   2.187   0.210  1.00  0.00    -0.095 SA
HETATM   11  C   UNL     1       2.420   2.638  -0.070  1.00  0.00     0.099 C 
ENDBRANCH   1  10
TORSDOF 3
