REMARK  2 active torsions:
REMARK  status: ('A' for Active; 'I' for Inactive)
REMARK    1  A    between atoms: S_2  and  C_3 
REMARK       I    between atoms: C_3  and  N_5 
REMARK    2  A    between atoms: N_5  and  C_6 
ROOT
HETATM    1  C   UNL     1      -1.114   0.816   0.323  1.00  0.00     0.109 C 
HETATM    2  C   UNL     1      -2.468   1.367  -0.123  1.00  0.00     0.029 C 
HETATM    3  C   UNL     1      -2.564   2.871   0.129  1.00  0.00     0.028 C 
HETATM    4  C   UNL     1      -1.234   3.589  -0.075  1.00  0.00     0.167 C 
HETATM    5  O   UNL     1      -0.389   2.833  -0.936  1.00  0.00    -0.389 OA
HETATM    6  C   UNL     1       0.045   1.620  -0.314  1.00  0.00     0.192 C 
ENDROOT
BRANCH   1   7
HETATM    7  N   UNL     1      -0.997  -0.599  -0.002  1.00  0.00    -0.345 N 
HETATM    8  C   UNL     1      -0.040  -1.365   0.605  1.00  0.00     0.279 C 
HETATM    9  O   UNL     1       0.542  -1.105   1.643  1.00  0.00    -0.260 OA
HETATM   10  H   UNL     1      -1.222  -0.888  -0.945  1.00  0.00     0.163 HD
BRANCH   8  11
HETATM   11  S   UNL     1       0.350  -2.740  -0.393  1.00  0.00    -0.074 SA
HETATM   12  C   UNL     1      -0.954  -3.861   0.141  1.00  0.00     0.100 C 
ENDBRANCH   8  11
ENDBRANCH   1   7
TORSDOF 2
