REMARK  3 active torsions:
REMARK  status: ('A' for Active; 'I' for Inactive)
REMARK    1  A    between atoms: C_5  and  N_6 
REMARK       I    between atoms: N_6  and  C_7 
REMARK    2  A    between atoms: C_7  and  C_9 
REMARK    3  A    between atoms: C_9  and  N_10 
ROOT
HETATM    1  N   UNL     1      -1.694  -3.851  -0.110  1.00  0.00    -0.324 N 
HETATM    2  C   UNL     1      -2.757  -4.127  -0.940  1.00  0.00     0.241 C 
HETATM    3  O   UNL     1      -2.684  -4.229  -2.166  1.00  0.00    -0.271 OA
HETATM    4  H   UNL     1      -1.642  -4.355   0.766  1.00  0.00     0.169 HD
ENDROOT
BRANCH   1   5
HETATM    5  C   UNL     1      -0.813  -2.759  -0.237  1.00  0.00     0.056 A 
HETATM    6  C   UNL     1       0.332  -2.820   0.572  1.00  0.00     0.032 A 
HETATM    7  C   UNL     1       1.255  -1.778   0.606  1.00  0.00     0.009 A 
HETATM    8  C   UNL     1       1.033  -0.623  -0.146  1.00  0.00    -0.060 A 
HETATM    9  C   UNL     1       2.014   0.511  -0.147  1.00  0.00     0.048 C 
HETATM   10  C   UNL     1      -0.116  -0.539  -0.936  1.00  0.00     0.033 A 
HETATM   11  C   UNL     1      -1.036  -1.596  -1.002  1.00  0.00     0.061 A 
HETATM   12 CL   UNL     1      -2.444  -1.269  -1.947  1.00  0.00    -0.082 Cl
ENDBRANCH   1   5
BRANCH   2  13
HETATM   13  C   UNL     1      -4.046  -4.321  -0.199  1.00  0.00     0.248 C 
BRANCH  13  14
HETATM   14  N   UNL     1      -4.661  -3.045   0.073  1.00  0.00    -0.274 N 
HETATM   15  N   UNL     1      -4.380  -2.387   1.214  1.00  0.00     0.005 NA
HETATM   16  N   UNL     1      -5.306  -1.450   1.366  1.00  0.00    -0.164 NA
HETATM   17  C   UNL     1      -6.167  -1.527   0.302  1.00  0.00     0.065 C 
HETATM   18  C   UNL     1      -5.704  -2.470  -0.587  1.00  0.00     0.136 C 
HETATM   19  C   UNL     1      -7.422  -0.756   0.274  1.00  0.00     0.073 C 
ENDBRANCH  13  14
ENDBRANCH   2  13
TORSDOF 3
