REMARK  2 active torsions:
REMARK  status: ('A' for Active; 'I' for Inactive)
REMARK    1  A    between atoms: N_4  and  C_5 
REMARK    2  A    between atoms: C_9  and  C_10 
ROOT
HETATM    1  C   UNL     1       0.493   3.557   0.161  1.00  0.00     0.069 A 
HETATM    2  C   UNL     1      -0.468   4.588   0.417  1.00  0.00     0.039 A 
HETATM    3  C   UNL     1       0.120   5.823   0.568  1.00  0.00     0.052 A 
HETATM    4  S   UNL     1       1.815   5.739   0.457  1.00  0.00    -0.102 SA
HETATM    5  C   UNL     1       1.807   4.038   0.174  1.00  0.00     0.034 A 
ENDROOT
BRANCH   1   6
HETATM    6  N   UNL     1       0.128   2.186  -0.054  1.00  0.00    -0.246 N 
HETATM    7  C   UNL     1      -1.106   1.600   0.150  1.00  0.00     0.142 A 
HETATM    8  C   UNL     1      -0.938   0.276  -0.188  1.00  0.00     0.065 A 
HETATM    9  C   UNL     1      -1.889  -0.850  -0.148  1.00  0.00     0.073 C 
HETATM   10  N   UNL     1       0.343   0.085  -0.610  1.00  0.00    -0.163 NA
HETATM   11  N   UNL     1       0.977   1.245  -0.525  1.00  0.00     0.009 NA
ENDBRANCH   1   6
BRANCH   5  12
HETATM   12  C   UNL     1       3.095   3.233   0.061  1.00  0.00     0.150 C 
HETATM   13  S   UNL     1       3.342   2.298   1.615  1.00  0.00    -0.148 SA
HETATM   14  C   UNL     1       4.389   0.992   0.921  1.00  0.00     0.076 C 
HETATM   15  C   UNL     1       5.487   1.487  -0.022  1.00  0.00     0.020 C 
HETATM   16  C   UNL     1       5.897   2.947   0.146  1.00  0.00     0.076 C 
HETATM   17  S   UNL     1       4.616   4.156  -0.349  1.00  0.00    -0.148 SA
ENDBRANCH   5  12
TORSDOF 2
