REMARK  15 active torsions:
REMARK  status: ('A' for Active; 'I' for Inactive)
REMARK    1  A    between atoms: C_2  and  C_3 
REMARK    2  A    between atoms: C_6  and  C_7 
REMARK    3  A    between atoms: C_7  and  O_9 
REMARK    4  A    between atoms: O_9  and  C_10 
REMARK    5  A    between atoms: C_10  and  C_11 
REMARK    6  A    between atoms: C_11  and  C_12 
REMARK    7  A    between atoms: C_12  and  C_13 
REMARK    8  A    between atoms: C_12  and  C_22 
REMARK    9  A    between atoms: C_13  and  C_15 
REMARK   10  A    between atoms: C_20  and  O_21 
REMARK   11  A    between atoms: C_22  and  C_24 
REMARK   12  A    between atoms: C_24  and  O_25 
REMARK   13  A    between atoms: C_24  and  C_26 
REMARK   14  A    between atoms: C_26  and  C_28 
REMARK   15  A    between atoms: C_28  and  C_29 
ROOT
HETATM    1  C   UNL     1      -5.549   1.337   0.073  1.00  0.00     0.135 C 
ENDROOT
BRANCH   1   2
HETATM    2  C   UNL     1      -4.118   0.851   0.240  1.00  0.00     0.047 C 
BRANCH   2   3
HETATM    3  C   UNL     1      -3.199   1.876  -0.386  1.00  0.00     0.180 C 
BRANCH   3   4
HETATM    4  O   UNL     1      -2.664   1.301  -1.581  1.00  0.00    -0.316 OA
BRANCH   4   5
HETATM    5  C   UNL     1      -1.367   0.983  -1.398  1.00  0.00     0.318 C 
HETATM    6  O   UNL     1      -0.458   1.521  -2.016  1.00  0.00    -0.257 OA
BRANCH   5   7
HETATM    7  C   UNL     1      -1.192  -0.012  -0.390  1.00  0.00     0.164 C 
HETATM    8  C   UNL     1      -1.424  -1.365  -0.292  1.00  0.00     0.157 C 
HETATM    9  N   UNL     1      -0.459  -1.897   0.538  1.00  0.00    -0.255 NA
HETATM   10  C   UNL     1       0.337  -0.850   0.704  1.00  0.00     0.212 C 
HETATM   11  O   UNL     1      -0.348   0.323   0.631  1.00  0.00    -0.305 OA
BRANCH  10  12
HETATM   12  C   UNL     1       1.664  -0.639   0.000  1.00  0.00     0.064 C 
HETATM   13  C   UNL     1       2.251  -1.448   0.000  1.00  0.00     0.010 C 
ENDBRANCH  10  12
ENDBRANCH   5   7
ENDBRANCH   4   5
ENDBRANCH   3   4
ENDBRANCH   2   3
ENDBRANCH   1   2
BRANCH   1  14
HETATM   14  C   UNL     1      -5.859   2.540   0.930  1.00  0.00     0.173 C 
HETATM   15  O   UNL     1      -5.018   3.090   1.645  1.00  0.00    -0.291 OA
BRANCH  14  16
HETATM   16  C   UNL     1      -7.102   3.242   0.605  1.00  0.00     0.044 A 
HETATM   17  C   UNL     1      -7.000   4.575   0.202  1.00  0.00     0.079 A 
HETATM   18  C   UNL     1      -8.117   5.236  -0.284  1.00  0.00     0.037 A 
HETATM   19  C   UNL     1      -9.338   4.567  -0.377  1.00  0.00     0.003 A 
HETATM   20  C   UNL     1      -9.444   3.235   0.027  1.00  0.00     0.001 A 
HETATM   21  C   UNL     1      -8.330   2.576   0.534  1.00  0.00     0.018 A 
BRANCH  17  22
HETATM   22  O   UNL     1      -5.814   5.262   0.207  1.00  0.00    -0.360 OA
HETATM   23  H   UNL     1      -5.171   4.769   0.761  1.00  0.00     0.217 HD
ENDBRANCH  17  22
ENDBRANCH  14  16
ENDBRANCH   1  14
BRANCH   1  24
HETATM   24  C   UNL     1      -6.450   0.156   0.286  1.00  0.00     0.174 C 
HETATM   25  O   UNL     1      -6.863  -0.111   1.402  1.00  0.00    -0.294 OA
BRANCH  24  26
HETATM   26  C   UNL     1      -6.646  -0.684  -0.957  1.00  0.00     0.258 C 
BRANCH  26  27
HETATM   27  O   UNL     1      -6.633  -0.117  -2.241  1.00  0.00    -0.380 OA
HETATM   28  H   UNL     1      -6.031  -0.670  -2.783  1.00  0.00     0.211 HD
ENDBRANCH  26  27
BRANCH  26  29
HETATM   29  C   UNL     1      -7.811  -1.602  -0.703  1.00  0.00     0.169 C 
HETATM   30  O   UNL     1      -8.960  -1.324  -1.048  1.00  0.00    -0.294 OA
BRANCH  29  31
HETATM   31  C   UNL     1      -7.531  -2.806   0.128  1.00  0.00     0.159 C 
BRANCH  31  32
HETATM   32  C   UNL     1      -6.110  -3.407   0.000  1.00  0.00     0.130 C 
HETATM   33  C   UNL     1      -6.110  -4.407   0.000  1.00  0.00     0.091 C 
HETATM   34  O   UNL     1      -5.125  -2.688   0.198  1.00  0.00    -0.298 OA
ENDBRANCH  31  32
ENDBRANCH  29  31
ENDBRANCH  26  29
ENDBRANCH  24  26
ENDBRANCH   1  24
TORSDOF 15
