REMARK  2 active torsions:
REMARK  status: ('A' for Active; 'I' for Inactive)
REMARK    1  A    between atoms: S_2  and  C_3 
REMARK    2  A    between atoms: C_8  and  N_9 
ROOT
HETATM    1  C   UNL     1       0.136  -0.670   0.000  1.00  0.00     0.121 A 
HETATM    2  N   UNL     1       0.212  -2.021   0.000  1.00  0.00    -0.233 NA
HETATM    3  C   UNL     1      -0.963  -2.660   0.000  1.00  0.00     0.234 A 
HETATM    4  N   UNL     1      -2.180  -2.096   0.000  1.00  0.00    -0.252 NA
HETATM    5  C   UNL     1      -2.201  -0.747   0.000  1.00  0.00     0.149 A 
HETATM    6  C   UNL     1      -1.067   0.040   0.000  1.00  0.00     0.079 A 
ENDROOT
BRANCH   6   7
HETATM    7  N   UNL     1      -1.121   1.430  -0.000  1.00  0.00    -0.396 N 
HETATM    8  H   UNL     1      -0.231   1.921   0.000  1.00  0.00     0.156 HD
HETATM    9  H   UNL     1      -1.982   1.954   0.000  1.00  0.00     0.156 HD
ENDBRANCH   6   7
BRANCH   1  10
HETATM   10  S   UNL     1       1.645   0.326  -0.000  1.00  0.00    -0.112 SA
HETATM   11  C   UNL     1       2.958  -0.848   0.000  1.00  0.00     0.097 C 
ENDBRANCH   1  10
TORSDOF 2
