REMARK  5 active torsions:
REMARK  status: ('A' for Active; 'I' for Inactive)
REMARK    1  A    between atoms: C_2  and  C_3 
REMARK    2  A    between atoms: C_3  and  C_4 
REMARK    3  A    between atoms: C_4  and  C_5 
REMARK    4  A    between atoms: C_4  and  N_9 
REMARK    5  A    between atoms: C_5  and  S_7 
ROOT
HETATM    1  C   UNL     1      -1.722   1.027  -0.802  1.00  0.00     0.302 C 
ENDROOT
BRANCH   1   2
HETATM    2  C   UNL     1      -0.649   1.947  -0.052  1.00  0.00     0.044 C 
BRANCH   2   3
HETATM    3  C   UNL     1       0.866   1.500   0.000  1.00  0.00    -0.002 C 
HETATM    4  C   UNL     1       0.866   0.500   0.000  1.00  0.00     0.005 C 
ENDBRANCH   2   3
ENDBRANCH   1   2
BRANCH   1   5
HETATM    5  C   UNL     1      -2.938   1.933  -1.182  1.00  0.00     0.218 C 
HETATM    6  O   UNL     1      -3.550   1.815  -2.238  1.00  0.00    -0.283 OA
BRANCH   5   7
HETATM    7  S   UNL     1      -3.498   3.101   0.039  1.00  0.00    -0.095 SA
HETATM    8  C   UNL     1      -5.265   2.747   0.034  1.00  0.00     0.099 C 
ENDBRANCH   5   7
ENDBRANCH   1   5
BRANCH   1   9
HETATM    9  N   UNL     1      -2.158  -0.241  -0.073  1.00  0.00     0.092 N 
HETATM   10  C   UNL     1      -3.606  -0.538  -0.206  1.00  0.00     0.310 C 
HETATM   11  C   UNL     1      -1.545  -1.485  -0.583  1.00  0.00     0.310 C 
ENDBRANCH   1   9
TORSDOF 5
