REMARK  7 active torsions:
REMARK  status: ('A' for Active; 'I' for Inactive)
REMARK       I    between atoms: N_3  and  C_6 
REMARK    1  A    between atoms: C_6  and  C_8 
REMARK    2  A    between atoms: N_13  and  C_14 
REMARK    3  A    between atoms: C_14  and  C_15 
REMARK    4  A    between atoms: C_15  and  C_16 
REMARK    5  A    between atoms: C_15  and  O_18 
REMARK    6  A    between atoms: C_16  and  O_17 
REMARK    7  A    between atoms: O_18  and  C_19 
ROOT
HETATM    1  C   UNL     1       3.864   0.624   0.978  1.00  0.00     0.166 C 
HETATM    2  C   UNL     1       4.816  -0.379   1.725  1.00  0.00     0.034 C 
HETATM    3  C   UNL     1       5.136  -1.615   0.838  1.00  0.00     0.004 C 
HETATM    4  C   UNL     1       3.964  -2.084  -0.025  1.00  0.00     0.019 C 
HETATM    5  C   UNL     1       2.736  -1.164  -0.045  1.00  0.00     0.118 C 
HETATM    6  N   UNL     1       2.948   0.255  -0.097  1.00  0.00    -0.398 N 
ENDROOT
BRANCH   6   7
HETATM    7  C   UNL     1       1.866   1.199  -0.377  1.00  0.00     0.152 C 
BRANCH   7   8
HETATM    8  C   UNL     1       0.894   1.429   0.787  1.00  0.00     0.170 C 
BRANCH   8   9
HETATM    9  C   UNL     1      -0.181   2.506   0.512  1.00  0.00     0.198 C 
BRANCH   9  10
HETATM   10  O   UNL     1       0.294   3.833   0.818  1.00  0.00    -0.398 OA
HETATM   11  H   UNL     1       0.946   4.034   0.127  1.00  0.00     0.209 HD
ENDBRANCH   9  10
ENDBRANCH   8   9
BRANCH   8  12
HETATM   12  O   UNL     1       0.437   0.182   1.336  1.00  0.00    -0.336 OA
BRANCH  12  13
HETATM   13  C   UNL     1      -0.217  -0.735   0.528  1.00  0.00     0.141 C 
HETATM   14  C   UNL     1      -1.417  -0.340  -0.182  1.00  0.00     0.205 C 
HETATM   15  C   UNL     1      -2.464  -1.122   0.094  1.00  0.00     0.057 C 
HETATM   16  O   UNL     1      -1.310   0.509  -1.084  1.00  0.00    -0.286 OA
HETATM   17  C   UNL     1      -2.190  -2.595   0.071  1.00  0.00     0.206 C 
HETATM   18  O   UNL     1      -0.835  -3.054   0.269  1.00  0.00    -0.356 OA
HETATM   19  C   UNL     1      -0.004  -2.063   0.693  1.00  0.00     0.175 C 
ENDBRANCH  12  13
ENDBRANCH   8  12
ENDBRANCH   7   8
ENDBRANCH   6   7
BRANCH   1  20
HETATM   20  C   UNL     1       4.092   2.161   1.270  1.00  0.00     0.222 C 
HETATM   21  N   UNL     1       4.797   2.751   0.157  1.00  0.00    -0.252 NA
HETATM   22  C   UNL     1       6.062   2.500   0.000  1.00  0.00     0.094 A 
HETATM   23  C   UNL     1       5.196   4.000   0.000  1.00  0.00     0.094 A 
HETATM   24  C   UNL     1       6.062   1.500   0.000  1.00  0.00     0.021 C 
HETATM   25  C   UNL     1       4.330   4.500   0.000  1.00  0.00     0.021 C 
HETATM   26  O   UNL     1       3.839   2.727   2.296  1.00  0.00    -0.277 OA
ENDBRANCH   1  20
TORSDOF 7
