REMARK  5 active torsions:
REMARK  status: ('A' for Active; 'I' for Inactive)
REMARK       I    between atoms: C_2  and  N_3 
REMARK    1  A    between atoms: C_2  and  O_17 
REMARK    2  A    between atoms: N_3  and  C_4 
REMARK    3  A    between atoms: C_7  and  C_8 
REMARK    4  A    between atoms: C_8  and  C_9 
REMARK    5  A    between atoms: O_17  and  C_18 
ROOT
HETATM    1  C   UNL     1       2.394  -2.820  -0.179  1.00  0.00     0.036 A 
HETATM    2  C   UNL     1       2.543  -1.627   0.525  1.00  0.00     0.030 A 
HETATM    3  C   UNL     1       3.764  -0.950   0.538  1.00  0.00     0.010 A 
HETATM    4  C   UNL     1       4.870  -1.460  -0.146  1.00  0.00    -0.054 A 
HETATM    5  C   UNL     1       4.719  -2.658  -0.860  1.00  0.00     0.010 A 
HETATM    6  C   UNL     1       3.502  -3.350  -0.846  1.00  0.00     0.030 A 
ENDROOT
BRANCH   1   7
HETATM    7  N   UNL     1       1.184  -3.532  -0.249  1.00  0.00    -0.302 N 
HETATM    8  C   UNL     1      -0.107  -3.060  -0.113  1.00  0.00     0.370 C 
HETATM    9  O   UNL     1      -1.039  -3.863  -0.164  1.00  0.00    -0.238 OA
HETATM   10  H   UNL     1       1.206  -4.484  -0.578  1.00  0.00     0.171 HD
BRANCH   8  11
HETATM   11  O   UNL     1      -0.201  -1.711  -0.024  1.00  0.00    -0.257 OA
BRANCH  11  12
HETATM   12  C   UNL     1      -1.357  -0.881  -0.024  1.00  0.00     0.131 C 
HETATM   13  C   UNL     1      -1.118   0.573  -0.028  1.00  0.00     0.227 C 
HETATM   14  C   UNL     1      -2.196   1.361  -0.196  1.00  0.00     0.192 C 
HETATM   15  O   UNL     1       0.089   0.908   0.111  1.00  0.00    -0.283 OA
HETATM   16  O   UNL     1      -3.501   0.975  -0.320  1.00  0.00    -0.355 OA
HETATM   17  C   UNL     1      -3.782  -0.405  -0.072  1.00  0.00     0.205 C 
HETATM   18  C   UNL     1      -2.616  -1.335  -0.038  1.00  0.00     0.041 C 
ENDBRANCH  11  12
ENDBRANCH   8  11
ENDBRANCH   1   7
BRANCH   4  19
HETATM   19  C   UNL     1       6.164  -0.676  -0.148  1.00  0.00     0.077 C 
BRANCH  19  20
HETATM   20  C   UNL     1       7.442  -1.457   0.094  1.00  0.00    -0.054 A 
HETATM   21  C   UNL     1       7.476  -2.629   0.865  1.00  0.00     0.007 A 
HETATM   22  C   UNL     1       8.670  -3.328   1.047  1.00  0.00     0.001 A 
HETATM   23  C   UNL     1       9.853  -2.841   0.500  1.00  0.00     0.000 A 
HETATM   24  C   UNL     1       9.846  -1.649  -0.222  1.00  0.00     0.001 A 
HETATM   25  C   UNL     1       8.648  -0.961  -0.423  1.00  0.00     0.007 A 
ENDBRANCH  19  20
ENDBRANCH   4  19
TORSDOF 5
