REMARK  7 active torsions:
REMARK  status: ('A' for Active; 'I' for Inactive)
REMARK    1  A    between atoms: O_2  and  C_3 
REMARK    2  A    between atoms: C_6  and  C_7 
REMARK    3  A    between atoms: C_7  and  C_8 
REMARK    4  A    between atoms: C_8  and  N_9 
REMARK    5  A    between atoms: C_8  and  C_10 
REMARK    6  A    between atoms: C_10  and  O_12 
REMARK    7  A    between atoms: O_12  and  C_13 
ROOT
HETATM    1  C   UNL     1      -1.424   3.913   0.144  1.00  0.00     0.321 C 
ENDROOT
BRANCH   1   2
HETATM    2  C   UNL     1      -0.150   3.004   0.174  1.00  0.00     0.084 C 
BRANCH   2   3
HETATM    3  C   UNL     1      -0.114   1.483   0.158  1.00  0.00    -0.056 A 
HETATM    4  C   UNL     1      -1.233   0.661   0.235  1.00  0.00     0.010 A 
HETATM    5  C   UNL     1      -1.160  -0.732   0.233  1.00  0.00     0.037 A 
HETATM    6  C   UNL     1       0.068  -1.368   0.198  1.00  0.00     0.068 A 
HETATM    7  C   UNL     1       1.217  -0.581   0.144  1.00  0.00     0.037 A 
HETATM    8  C   UNL     1       1.128   0.824   0.117  1.00  0.00     0.010 A 
BRANCH   6   9
HETATM    9  O   UNL     1       0.243  -2.726   0.231  1.00  0.00    -0.356 OA
HETATM   10  C   UNL     1      -0.958  -3.498   0.259  1.00  0.00     0.210 C 
ENDBRANCH   6   9
ENDBRANCH   2   3
ENDBRANCH   1   2
BRANCH   1  11
HETATM   11  N   UNL     1      -1.462   4.736  -1.110  1.00  0.00     0.092 N 
HETATM   12  H   UNL     1      -1.569   5.714  -0.833  1.00  0.00     0.313 HD
HETATM   13  H   UNL     1      -2.364   4.531  -1.564  1.00  0.00     0.313 HD
ENDBRANCH   1  11
BRANCH   1  14
HETATM   14  C   UNL     1      -2.775   3.245   0.462  1.00  0.00     0.297 C 
HETATM   15  O   UNL     1      -3.033   2.845   1.593  1.00  0.00    -0.262 OA
BRANCH  14  16
HETATM   16  O   UNL     1      -3.467   3.024  -0.714  1.00  0.00    -0.271 OA
BRANCH  16  17
HETATM   17  C   UNL     1      -4.540   2.110  -0.631  1.00  0.00     0.150 C 
HETATM   18  C   UNL     1      -5.825   2.530  -0.069  1.00  0.00     0.205 C 
HETATM   19  C   UNL     1      -6.694   1.529   0.159  1.00  0.00     0.057 C 
HETATM   20  O   UNL     1      -5.939   3.769   0.107  1.00  0.00    -0.286 OA
HETATM   21  C   UNL     1      -6.410   0.093  -0.167  1.00  0.00     0.206 C 
HETATM   22  O   UNL     1      -5.310  -0.149  -1.063  1.00  0.00    -0.356 OA
HETATM   23  C   UNL     1      -4.398   0.871  -1.143  1.00  0.00     0.176 C 
ENDBRANCH  16  17
ENDBRANCH  14  16
ENDBRANCH   1  14
TORSDOF 7
