REMARK  4 active torsions:
REMARK  status: ('A' for Active; 'I' for Inactive)
REMARK    1  A    between atoms: C_2  and  N_3 
REMARK    2  A    between atoms: N_3  and  C_4 
REMARK    3  A    between atoms: C_4  and  C_5 
REMARK    4  A    between atoms: C_5  and  O_6 
ROOT
HETATM    1  C   UNL     1       0.921  -0.383  -0.264  1.00  0.00     0.074 A 
HETATM    2  C   UNL     1       0.169  -1.343   0.626  1.00  0.00     0.042 A 
HETATM    3  C   UNL     1      -0.527  -0.723  -0.545  1.00  0.00     0.042 A 
ENDROOT
BRANCH   1   4
HETATM    4  C   UNL     1       1.381   0.941   0.305  1.00  0.00     0.159 C 
BRANCH   4   5
HETATM    5  N   UNL     1       0.503   2.042  -0.018  1.00  0.00    -0.365 N 
HETATM    6  H   UNL     1      -0.457   1.865  -0.274  1.00  0.00     0.161 HD
BRANCH   5   7
HETATM    7  C   UNL     1       0.887   3.336   0.209  1.00  0.00     0.348 C 
HETATM    8  O   UNL     1       1.977   3.693   0.634  1.00  0.00    -0.284 OA
ENDBRANCH   5   7
ENDBRANCH   4   5
ENDBRANCH   1   4
BRANCH   1   9
HETATM    9  O   UNL     1       1.860  -1.004  -1.161  1.00  0.00    -0.388 OA
HETATM   10  H   UNL     1       2.691  -1.232  -0.706  1.00  0.00     0.210 HD
ENDBRANCH   1   9
TORSDOF 4
