REMARK  2 active torsions:
REMARK  status: ('A' for Active; 'I' for Inactive)
REMARK    1  A    between atoms: N_4  and  C_5 
REMARK    2  A    between atoms: C_5  and  C_6 
ROOT
HETATM    1  C   UNL     1      -4.507   0.736   0.107  1.00  0.00    -0.009 A 
HETATM    2  C   UNL     1      -4.525  -0.627   0.469  1.00  0.00     0.011 A 
HETATM    3  C   UNL     1      -5.726  -1.316   0.608  1.00  0.00     0.002 A 
HETATM    4  C   UNL     1      -6.927  -0.651   0.418  1.00  0.00     0.014 A 
HETATM    5  C   UNL     1      -6.931   0.715   0.103  1.00  0.00    -0.007 A 
HETATM    6  C   UNL     1      -8.139   1.408  -0.048  1.00  0.00     0.015 A 
HETATM    7  C   UNL     1      -8.124   2.765  -0.336  1.00  0.00     0.020 A 
HETATM    8  C   UNL     1      -6.896   3.379  -0.483  1.00  0.00     0.117 A 
HETATM    9  N   UNL     1      -5.713   2.737  -0.364  1.00  0.00    -0.260 NA
HETATM   10  C   UNL     1      -5.717   1.423  -0.061  1.00  0.00     0.074 A 
ENDROOT
BRANCH   1  11
HETATM   11  C   UNL     1      -3.226   1.524  -0.129  1.00  0.00     0.187 C 
BRANCH  11  12
HETATM   12  N   UNL     1      -1.994   0.786   0.107  1.00  0.00    -0.279 N 
HETATM   13  C   UNL     1      -1.492  -0.278  -0.590  1.00  0.00     0.136 A 
HETATM   14  C   UNL     1      -0.444  -0.715   0.189  1.00  0.00     0.065 A 
HETATM   15  C   UNL     1       0.375  -1.936   0.082  1.00  0.00     0.073 C 
HETATM   16  N   UNL     1      -0.259   0.163   1.224  1.00  0.00    -0.164 NA
HETATM   17  N   UNL     1      -1.204   1.090   1.154  1.00  0.00     0.004 NA
ENDBRANCH  11  12
ENDBRANCH   1  11
TORSDOF 2
