REMARK  2 active torsions:
REMARK  status: ('A' for Active; 'I' for Inactive)
REMARK    1  A    between atoms: S_2  and  C_3 
REMARK       I    between atoms: C_3  and  N_5 
REMARK    2  A    between atoms: N_5  and  C_6 
ROOT
HETATM    1  C   UNL     1       1.600   0.672  -0.026  1.00  0.00     0.038 A 
HETATM    2  C   UNL     1       1.627  -0.704  -0.274  1.00  0.00     0.032 A 
HETATM    3  C   UNL     1       0.421  -1.430  -0.350  1.00  0.00     0.042 A 
HETATM    4  C   UNL     1      -0.810  -0.800  -0.147  1.00  0.00     0.109 A 
HETATM    5  C   UNL     1      -0.834   0.562   0.146  1.00  0.00     0.108 A 
HETATM    6  C   UNL     1       0.358   1.277   0.223  1.00  0.00     0.069 A 
HETATM    7  O   UNL     1      -1.979   1.278   0.363  1.00  0.00    -0.305 OA
HETATM    8  C   UNL     1      -3.111   0.612  -0.195  1.00  0.00     0.416 C 
HETATM    9  F   UNL     1      -4.216   1.231   0.310  1.00  0.00    -0.210 F 
HETATM   10  C   UNL     1      -3.125  -0.880   0.133  1.00  0.00     0.414 C 
HETATM   11  F   UNL     1      -4.166  -1.486  -0.498  1.00  0.00    -0.169 F 
HETATM   12  F   UNL     1      -3.294  -1.103   1.462  1.00  0.00    -0.169 F 
HETATM   13  O   UNL     1      -1.936  -1.567  -0.275  1.00  0.00    -0.277 OA
ENDROOT
BRANCH   1  14
HETATM   14  N   UNL     1       2.788   1.460  -0.029  1.00  0.00    -0.318 N 
HETATM   15  C   UNL     1       2.760   2.766  -0.495  1.00  0.00     0.283 C 
HETATM   16  O   UNL     1       1.835   3.228  -1.143  1.00  0.00    -0.260 OA
HETATM   17  H   UNL     1       3.684   0.996   0.074  1.00  0.00     0.169 HD
BRANCH  15  18
HETATM   18  S   UNL     1       4.078   3.854  -0.129  1.00  0.00    -0.073 SA
HETATM   19  C   UNL     1       5.543   2.934   0.274  1.00  0.00     0.100 C 
ENDBRANCH  15  18
ENDBRANCH   1  14
TORSDOF 2
