REMARK  2 active torsions:
REMARK  status: ('A' for Active; 'I' for Inactive)
REMARK    1  A    between atoms: C_8  and  O_9 
REMARK    2  A    between atoms: O_9  and  C_10 
ROOT
HETATM    1  C   UNL     1       1.967   0.194   0.337  1.00  0.00     0.013 C 
HETATM    2  C   UNL     1       0.701  -0.550  -0.115  1.00  0.00     0.018 C 
HETATM    3  C   UNL     1       0.740  -2.002   0.360  1.00  0.00     0.085 C 
HETATM    4  C   UNL     1      -0.507  -2.736  -0.063  1.00  0.00     0.127 C 
HETATM    5  O   UNL     1      -0.459  -3.870  -0.535  1.00  0.00    -0.298 OA
HETATM    6  C   UNL     1      -1.823  -2.082   0.279  1.00  0.00     0.081 C 
HETATM    7  C   UNL     1      -1.838  -0.610  -0.100  1.00  0.00     0.040 C 
HETATM    8  C   UNL     1      -0.588   0.168   0.340  1.00  0.00     0.135 C 
ENDROOT
BRANCH   8   9
HETATM    9  O   UNL     1      -0.587   1.465  -0.298  1.00  0.00    -0.323 OA
BRANCH   9  10
HETATM   10  C   UNL     1      -1.475   2.395   0.116  1.00  0.00     0.398 C 
HETATM   11  O   UNL     1      -1.542   3.523  -0.340  1.00  0.00    -0.276 OA
ENDBRANCH   9  10
ENDBRANCH   8   9
TORSDOF 2
