REMARK  10 active torsions:
REMARK  status: ('A' for Active; 'I' for Inactive)
REMARK    1  A    between atoms: N_4  and  C_5 
REMARK    2  A    between atoms: C_5  and  C_6 
REMARK    3  A    between atoms: C_6  and  O_7 
REMARK    4  A    between atoms: C_6  and  C_8 
REMARK    5  A    between atoms: C_8  and  O_9 
REMARK    6  A    between atoms: C_8  and  C_10 
REMARK    7  A    between atoms: C_10  and  O_11 
REMARK    8  A    between atoms: C_10  and  C_12 
REMARK    9  A    between atoms: C_12  and  C_14 
REMARK   10  A    between atoms: C_14  and  O_15 
ROOT
HETATM    1  C   UNL     1      -2.292  -5.120  -0.053  1.00  0.00     0.184 C 
ENDROOT
BRANCH   1   2
HETATM    2  C   UNL     1      -1.284  -3.958  -0.134  1.00  0.00     0.169 C 
BRANCH   2   3
HETATM    3  C   UNL     1      -1.914  -2.689  -0.724  1.00  0.00     0.180 C 
BRANCH   3   4
HETATM    4  N   UNL     1      -1.098  -1.543  -0.362  1.00  0.00    -0.281 N 
HETATM    5  C   UNL     1       0.131  -1.224  -0.858  1.00  0.00     0.136 A 
HETATM    6  C   UNL     1       0.658  -0.386   0.097  1.00  0.00     0.065 A 
HETATM    7  C   UNL     1       2.028   0.142   0.224  1.00  0.00     0.073 C 
HETATM    8  N   UNL     1      -0.291  -0.145   1.057  1.00  0.00    -0.164 NA
HETATM    9  N   UNL     1      -1.369  -0.858   0.764  1.00  0.00     0.004 NA
ENDBRANCH   3   4
ENDBRANCH   2   3
BRANCH   2  10
HETATM   10  O   UNL     1      -0.174  -4.327  -0.965  1.00  0.00    -0.391 OA
HETATM   11  H   UNL     1       0.227  -5.122  -0.545  1.00  0.00     0.210 HD
ENDBRANCH   2  10
ENDBRANCH   1   2
BRANCH   1  12
HETATM   12  O   UNL     1      -3.460  -4.745   0.700  1.00  0.00    -0.390 OA
HETATM   13  H   UNL     1      -3.170  -4.246   1.492  1.00  0.00     0.210 HD
ENDBRANCH   1  12
BRANCH   1  14
HETATM   14  C   UNL     1      -1.720  -6.413   0.570  1.00  0.00     0.221 C 
BRANCH  14  15
HETATM   15  O   UNL     1      -0.305  -6.520   0.354  1.00  0.00    -0.385 OA
HETATM   16  H   UNL     1      -0.129  -7.468   0.158  1.00  0.00     0.210 HD
ENDBRANCH  14  15
BRANCH  14  17
HETATM   17  C   UNL     1      -2.397  -7.657  -0.009  1.00  0.00     0.181 C 
HETATM   18  O   UNL     1      -1.699  -8.570  -0.471  1.00  0.00    -0.293 OA
BRANCH  17  19
HETATM   19  C   UNL     1      -3.911  -7.806   0.147  1.00  0.00     0.245 C 
BRANCH  19  20
HETATM   20  O   UNL     1      -4.706  -6.829  -0.488  1.00  0.00    -0.393 OA
HETATM   21  H   UNL     1      -4.631  -5.995   0.022  1.00  0.00     0.209 HD
ENDBRANCH  19  20
ENDBRANCH  17  19
ENDBRANCH  14  17
ENDBRANCH   1  14
TORSDOF 10
