REMARK  5 active torsions:
REMARK  status: ('A' for Active; 'I' for Inactive)
REMARK    1  A    between atoms: C_9  and  N_11 
REMARK    2  A    between atoms: N_11  and  C_12 
REMARK    3  A    between atoms: C_12  and  O_14 
REMARK    4  A    between atoms: O_14  and  C_15 
REMARK    5  A    between atoms: C_20  and  O_21 
ROOT
HETATM    1  N   UNL     1      -0.870  -0.502   0.000  1.00  0.00    -0.354 N 
HETATM    2  H   UNL     1      -1.242  -0.342   0.935  1.00  0.00     0.163 HD
ENDROOT
BRANCH   1   3
HETATM    3  C   UNL     1       0.000   0.000   0.000  1.00  0.00     0.016 A 
HETATM    4  C   UNL     1       0.870   0.502   0.000  1.00  0.00    -0.019 A 
HETATM    5  C   UNL     1       0.870   1.529   0.000  1.00  0.00     0.050 A 
HETATM    6  C   UNL     1       0.934   0.482   1.797  1.00  0.00     0.018 C 
HETATM    7  C   UNL     1       2.312  -0.202  -0.375  1.00  0.00    -0.004 C 
HETATM    8  C   UNL     1       2.736  -1.296   0.635  1.00  0.00     0.006 C 
HETATM    9  C   UNL     1       1.879  -1.043  -1.531  1.00  0.00     0.012 C 
HETATM   10  C   UNL     1       1.542  -2.227   0.514  1.00  0.00     0.007 C 
HETATM   11  C   UNL     1       0.772  -1.503  -0.619  1.00  0.00     0.012 C 
HETATM   12  C   UNL     1      -0.576   0.861  -1.587  1.00  0.00     0.037 C 
ENDBRANCH   1   3
BRANCH   1  13
HETATM   13  C   UNL     1      -2.095  -0.858  -0.553  1.00  0.00     0.216 C 
HETATM   14  S   UNL     1      -2.494  -1.886  -1.819  1.00  0.00    -0.033 SA
BRANCH  13  15
HETATM   15  O   UNL     1      -3.103  -0.538   0.334  1.00  0.00    -0.280 OA
BRANCH  15  16
HETATM   16  C   UNL     1      -3.954   0.542  -0.021  1.00  0.00     0.133 A 
HETATM   17  C   UNL     1      -3.596   1.876   0.408  1.00  0.00     0.099 A 
HETATM   18  C   UNL     1      -4.435   2.890   0.184  1.00  0.00     0.039 A 
HETATM   19  C   UNL     1      -5.764   2.680  -0.491  1.00  0.00     0.205 A 
HETATM   20  O   UNL     1      -6.088   1.321  -0.837  1.00  0.00    -0.356 OA
HETATM   21  C   UNL     1      -5.161   0.347  -0.573  1.00  0.00     0.175 A 
BRANCH  17  22
HETATM   22  O   UNL     1      -2.394   2.027   1.058  1.00  0.00    -0.358 OA
HETATM   23  H   UNL     1      -2.298   2.964   1.285  1.00  0.00     0.217 HD
ENDBRANCH  17  22
ENDBRANCH  15  16
ENDBRANCH  13  15
ENDBRANCH   1  13
TORSDOF 5
