REMARK  7 active torsions:
REMARK  status: ('A' for Active; 'I' for Inactive)
REMARK    1  A    between atoms: C_2  and  C_3 
REMARK    2  A    between atoms: C_3  and  S_4 
REMARK    3  A    between atoms: S_4  and  C_5 
REMARK    4  A    between atoms: C_5  and  C_6 
REMARK    5  A    between atoms: C_6  and  C_7 
REMARK    6  A    between atoms: C_7  and  O_9 
REMARK    7  A    between atoms: O_9  and  C_10 
ROOT
HETATM    1  C   UNL     1       1.776   0.513   0.450  1.00  0.00     0.264 C 
HETATM    2  O   UNL     1       1.094   0.694   1.458  1.00  0.00    -0.265 OA
ENDROOT
BRANCH   1   3
HETATM    3  C   UNL     1       3.076   1.221   0.202  1.00  0.00     0.121 C 
BRANCH   3   4
HETATM    4  C   UNL     1       2.846   2.725   0.174  1.00  0.00     0.084 C 
BRANCH   4   5
HETATM    5  S   UNL     1       4.413   3.540   0.602  1.00  0.00    -0.165 SA
BRANCH   5   6
HETATM    6  C   UNL     1       4.085   5.205  -0.038  1.00  0.00     0.100 C 
BRANCH   6   7
HETATM    7  C   UNL     1       5.343   6.004  -0.254  1.00  0.00    -0.027 C 
HETATM    8  C   UNL     1       6.598   5.557  -0.418  1.00  0.00     0.007 C 
ENDBRANCH   6   7
ENDBRANCH   5   6
ENDBRANCH   4   5
ENDBRANCH   3   4
ENDBRANCH   1   3
BRANCH   1   9
HETATM    9  O   UNL     1       1.515  -0.379  -0.558  1.00  0.00    -0.273 OA
BRANCH   9  10
HETATM   10  C   UNL     1       0.259  -0.953  -0.364  1.00  0.00     0.146 C 
HETATM   11  C   UNL     1      -0.963  -0.115  -0.502  1.00  0.00     0.186 C 
HETATM   12  C   UNL     1      -2.218  -0.675   0.103  1.00  0.00     0.112 C 
HETATM   13  O   UNL     1      -0.912   0.996  -1.027  1.00  0.00    -0.290 OA
HETATM   14  C   UNL     1      -2.245  -2.164  -0.182  1.00  0.00     0.182 C 
HETATM   15  O   UNL     1      -1.084  -2.851   0.302  1.00  0.00    -0.360 OA
HETATM   16  C   UNL     1       0.103  -2.220   0.037  1.00  0.00     0.175 C 
ENDBRANCH   9  10
ENDBRANCH   1   9
TORSDOF 7
