REMARK  3 active torsions:
REMARK  status: ('A' for Active; 'I' for Inactive)
REMARK    1  A    between atoms: C_2  and  N_3 
REMARK    2  A    between atoms: C_6  and  C_7 
REMARK    3  A    between atoms: C_7  and  O_8 
ROOT
HETATM    1  N   UNL     1       0.819   0.898   0.235  1.00  0.00    -0.359 N 
HETATM    2  C   UNL     1       2.047   0.169  -0.049  1.00  0.00     0.125 C 
HETATM    3  C   UNL     1       1.942  -1.297   0.360  1.00  0.00     0.026 C 
HETATM    4  C   UNL     1       0.690  -1.959  -0.235  1.00  0.00     0.012 C 
HETATM    5  C   UNL     1      -0.558  -1.151   0.148  1.00  0.00     0.026 C 
HETATM    6  C   UNL     1      -0.425   0.317  -0.243  1.00  0.00     0.125 C 
ENDROOT
BRANCH   4   7
HETATM    7  C   UNL     1       0.543  -3.414   0.222  1.00  0.00     0.168 C 
BRANCH   7   8
HETATM    8  O   UNL     1       1.726  -4.158  -0.033  1.00  0.00    -0.400 OA
HETATM    9  H   UNL     1       1.917  -4.102  -0.985  1.00  0.00     0.209 HD
ENDBRANCH   7   8
ENDBRANCH   4   7
BRANCH   1  10
HETATM   10  C   UNL     1       0.897   2.265   0.447  1.00  0.00     0.350 C 
HETATM   11  O   UNL     1       1.925   2.920   0.541  1.00  0.00    -0.284 OA
ENDBRANCH   1  10
TORSDOF 3
