REMARK  3 active torsions:
REMARK  status: ('A' for Active; 'I' for Inactive)
REMARK    1  A    between atoms: O_2  and  C_3 
REMARK    2  A    between atoms: C_3  and  C_5 
REMARK    3  A    between atoms: C_9  and  N_10 
ROOT
HETATM    1  C   UNL     1      -3.049   1.185   0.980  1.00  0.00     0.108 A 
HETATM    2  S   UNL     1      -4.485   2.080   1.266  1.00  0.00    -0.094 SA
HETATM    3  C   UNL     1      -3.797   3.511   0.638  1.00  0.00     0.053 A 
HETATM    4  C   UNL     1      -2.493   3.328   0.231  1.00  0.00     0.040 A 
HETATM    5  C   UNL     1      -2.065   1.973   0.406  1.00  0.00     0.077 A 
ENDROOT
BRANCH   5   6
HETATM    6  N   UNL     1      -0.773   1.488   0.058  1.00  0.00    -0.246 N 
HETATM    7  N   UNL     1      -0.502   0.179  -0.159  1.00  0.00     0.009 NA
HETATM    8  N   UNL     1       0.792   0.050  -0.411  1.00  0.00    -0.163 NA
HETATM    9  C   UNL     1       1.360   1.288  -0.351  1.00  0.00     0.065 A 
HETATM   10  C   UNL     1       0.375   2.224  -0.135  1.00  0.00     0.142 A 
HETATM   11  C   UNL     1       2.821   1.458  -0.467  1.00  0.00     0.073 C 
ENDBRANCH   5   6
BRANCH   1  12
HETATM   12  C   UNL     1      -2.932  -0.157   1.528  1.00  0.00     0.302 C 
HETATM   13  O   UNL     1      -2.175  -0.434   2.454  1.00  0.00    -0.259 OA
BRANCH  12  14
HETATM   14  O   UNL     1      -3.797  -1.083   1.021  1.00  0.00    -0.322 OA
HETATM   15  C   UNL     1      -4.283  -0.984  -0.323  1.00  0.00     0.213 C 
ENDBRANCH  12  14
ENDBRANCH   1  12
TORSDOF 3
