REMARK  13 active torsions:
REMARK  status: ('A' for Active; 'I' for Inactive)
REMARK    1  A    between atoms: C_2  and  C_4 
REMARK    2  A    between atoms: C_4  and  C_5 
REMARK    3  A    between atoms: C_5  and  C_7 
REMARK    4  A    between atoms: C_7  and  O_8 
REMARK    5  A    between atoms: C_7  and  C_9 
REMARK    6  A    between atoms: C_9  and  C_11 
REMARK    7  A    between atoms: C_11  and  C_12 
REMARK    8  A    between atoms: C_11  and  C_26 
REMARK    9  A    between atoms: C_12  and  C_13 
REMARK   10  A    between atoms: C_13  and  N_14 
REMARK   11  A    between atoms: C_18  and  C_19 
REMARK   12  A    between atoms: C_19  and  C_20 
REMARK   13  A    between atoms: C_26  and  C_28 
ROOT
HETATM    1  C   UNL     1       1.270  -0.549   0.510  1.00  0.00     0.135 C 
ENDROOT
BRANCH   1   2
HETATM    2  C   UNL     1       1.500   0.833   1.141  1.00  0.00     0.174 C 
HETATM    3  O   UNL     1       1.394   1.004   2.363  1.00  0.00    -0.294 OA
BRANCH   2   4
HETATM    4  C   UNL     1       2.240   1.892   0.304  1.00  0.00     0.258 C 
BRANCH   4   5
HETATM    5  C   UNL     1       1.978   3.327   0.771  1.00  0.00     0.169 C 
HETATM    6  O   UNL     1       0.859   3.836   0.823  1.00  0.00    -0.294 OA
BRANCH   5   7
HETATM    7  C   UNL     1       3.202   4.162   1.077  1.00  0.00     0.159 C 
BRANCH   7   8
HETATM    8  C   UNL     1       4.033   4.443  -0.148  1.00  0.00     0.130 C 
HETATM    9  C   UNL     1       5.108   5.487  -0.029  1.00  0.00     0.091 C 
HETATM   10  O   UNL     1       3.885   3.807  -1.193  1.00  0.00    -0.298 OA
ENDBRANCH   7   8
ENDBRANCH   5   7
ENDBRANCH   4   5
BRANCH   4  11
HETATM   11  O   UNL     1       2.131   1.799  -1.097  1.00  0.00    -0.380 OA
HETATM   12  H   UNL     1       2.704   2.488  -1.496  1.00  0.00     0.211 HD
ENDBRANCH   4  11
ENDBRANCH   2   4
ENDBRANCH   1   2
BRANCH   1  13
HETATM   13  C   UNL     1       2.674  -1.113   0.254  1.00  0.00     0.042 C 
BRANCH  13  14
HETATM   14  C   UNL     1       2.816  -2.625   0.155  1.00  0.00     0.149 C 
BRANCH  14  15
HETATM   15  N   UNL     1       4.188  -3.125   0.070  1.00  0.00    -0.263 N 
HETATM   16  C   UNL     1       5.437  -2.529   0.156  1.00  0.00     0.142 A 
HETATM   17  N   UNL     1       6.340  -3.492   0.105  1.00  0.00    -0.147 NA
HETATM   18  N   UNL     1       5.660  -4.668  -0.030  1.00  0.00     0.018 NA
HETATM   19  N   UNL     1       4.355  -4.460  -0.046  1.00  0.00    -0.003 NA
BRANCH  16  20
HETATM   20  C   UNL     1       5.698  -1.071   0.347  1.00  0.00     0.140 C 
BRANCH  20  21
HETATM   21  C   UNL     1       7.083  -0.533   0.132  1.00  0.00     0.038 A 
HETATM   22  N   UNL     1       7.329   0.822   0.120  1.00  0.00    -0.278 N 
HETATM   23  N   UNL     1       8.618   1.138  -0.098  1.00  0.00    -0.185 NA
HETATM   24  C   UNL     1       6.373   1.892   0.277  1.00  0.00     0.179 C 
HETATM   25  C   UNL     1       9.212  -0.047  -0.232  1.00  0.00     0.141 A 
HETATM   26  C   UNL     1       8.310  -1.119  -0.089  1.00  0.00     0.048 A 
ENDBRANCH  20  21
ENDBRANCH  16  20
ENDBRANCH  14  15
ENDBRANCH  13  14
ENDBRANCH   1  13
BRANCH   1  27
HETATM   27  C   UNL     1       0.414  -0.487  -0.748  1.00  0.00     0.174 C 
HETATM   28  O   UNL     1       0.817  -0.868  -1.850  1.00  0.00    -0.291 OA
BRANCH  27  29
HETATM   29  C   UNL     1      -0.910   0.178  -0.594  1.00  0.00     0.060 A 
HETATM   30  C   UNL     1      -1.891  -0.379   0.263  1.00  0.00     0.185 A 
HETATM   31  C   UNL     1      -3.007   0.457   0.468  1.00  0.00     0.056 A 
HETATM   32  O   UNL     1      -1.804  -1.525   0.821  1.00  0.00    -0.287 OA
HETATM   33  C   UNL     1      -3.137   1.736  -0.096  1.00  0.00     0.004 A 
HETATM   34  C   UNL     1      -2.152   2.227  -0.941  1.00  0.00     0.001 A 
HETATM   35  C   UNL     1      -1.044   1.437  -1.210  1.00  0.00     0.019 A 
ENDBRANCH  27  29
ENDBRANCH   1  27
TORSDOF 13
