REMARK  4 active torsions:
REMARK  status: ('A' for Active; 'I' for Inactive)
REMARK    1  A    between atoms: C_2  and  N_3 
REMARK    2  A    between atoms: N_3  and  C_4 
REMARK    3  A    between atoms: C_4  and  C_5 
REMARK    4  A    between atoms: C_5  and  N_6 
ROOT
HETATM    1  C   UNL     1       0.521  -1.661  -0.073  1.00  0.00     0.147 C 
ENDROOT
BRANCH   1   2
HETATM    2  C   UNL     1      -0.200  -3.004   0.008  1.00  0.00     0.142 C 
BRANCH   2   3
HETATM    3  N   UNL     1       0.712  -4.133   0.081  1.00  0.00    -0.367 N 
HETATM    4  H   UNL     1       1.705  -3.987   0.210  1.00  0.00     0.161 HD
BRANCH   3   5
HETATM    5  C   UNL     1       0.229  -5.418   0.112  1.00  0.00     0.348 C 
HETATM    6  O   UNL     1      -0.949  -5.733   0.051  1.00  0.00    -0.284 OA
ENDBRANCH   3   5
ENDBRANCH   2   3
ENDBRANCH   1   2
BRANCH   1   7
HETATM    7  N   UNL     1      -0.332  -0.483  -0.101  1.00  0.00    -0.365 N 
HETATM    8  C   UNL     1       0.156   0.801  -0.043  1.00  0.00     0.090 A 
HETATM    9  C   UNL     1      -0.915   1.666  -0.041  1.00  0.00     0.019 A 
HETATM   10  C   UNL     1      -2.088   0.883  -0.123  1.00  0.00     0.019 A 
HETATM   11  C   UNL     1      -1.698  -0.439  -0.173  1.00  0.00     0.090 A 
ENDBRANCH   1   7
TORSDOF 4
