REMARK  4 active torsions:
REMARK  status: ('A' for Active; 'I' for Inactive)
REMARK    1  A    between atoms: C_3  and  O_4 
REMARK    2  A    between atoms: C_3  and  C_12 
REMARK    3  A    between atoms: O_4  and  C_5 
REMARK    4  A    between atoms: C_19  and  O_20 
ROOT
HETATM    1  C   UNL     1       1.732  -3.000   0.000  1.00  0.00     0.056 A 
HETATM    2  C   UNL     1       1.732  -2.000   0.000  1.00  0.00     0.079 A 
HETATM    3  C   UNL     1       0.866  -1.500   0.000  1.00  0.00     0.088 A 
HETATM    4  C   UNL     1       0.366  -2.366   0.000  1.00  0.00     0.221 A 
HETATM    5  C   UNL     1      -0.090  -2.983  -1.542  1.00  0.00     0.090 C 
HETATM    6  N   UNL     1      -0.432  -3.475  -2.539  1.00  0.00    -0.195 NA
ENDROOT
BRANCH   4   7
HETATM    7  O   UNL     1      -0.126  -3.477   1.028  1.00  0.00    -0.382 OA
HETATM    8  H   UNL     1      -0.736  -4.038   0.514  1.00  0.00     0.211 HD
ENDBRANCH   4   7
BRANCH   3   9
HETATM    9  O   UNL     1       1.366  -0.634   0.000  1.00  0.00    -0.333 OA
BRANCH   9  10
HETATM   10  C   UNL     1       2.843   0.021  -0.296  1.00  0.00     0.141 C 
HETATM   11  C   UNL     1       3.083   1.467  -0.173  1.00  0.00     0.205 C 
HETATM   12  C   UNL     1       4.361   1.866  -0.007  1.00  0.00     0.057 C 
HETATM   13  O   UNL     1       2.043   2.181  -0.302  1.00  0.00    -0.286 OA
HETATM   14  C   UNL     1       5.549   0.969  -0.038  1.00  0.00     0.206 C 
HETATM   15  O   UNL     1       5.300  -0.328  -0.573  1.00  0.00    -0.356 OA
HETATM   16  C   UNL     1       3.989  -0.720  -0.540  1.00  0.00     0.176 C 
ENDBRANCH   9  10
ENDBRANCH   3   9
BRANCH   3  17
HETATM   17  C   UNL     1       0.127  -0.928   1.614  1.00  0.00     0.045 C 
HETATM   18  C   UNL     1       0.127   0.465   1.662  1.00  0.00    -0.008 C 
HETATM   19  C   UNL     1      -0.877   1.072   0.916  1.00  0.00     0.004 C 
HETATM   20  C   UNL     1      -2.073   0.395   0.673  1.00  0.00    -0.062 C 
HETATM   21  C   UNL     1      -2.262  -0.834   1.293  1.00  0.00     0.004 C 
HETATM   22  C   UNL     1      -3.135   1.087  -0.103  1.00  0.00     0.048 C 
HETATM   23  C   UNL     1      -1.171  -1.393   1.955  1.00  0.00    -0.008 C 
ENDBRANCH   3  17
TORSDOF 4
