REMARK  5 active torsions:
REMARK  status: ('A' for Active; 'I' for Inactive)
REMARK    1  A    between atoms: O_2  and  C_3 
REMARK    2  A    between atoms: C_5  and  O_6 
REMARK    3  A    between atoms: C_8  and  N_9 
REMARK       I    between atoms: N_9  and  C_10 
REMARK    4  A    between atoms: C_10  and  O_12 
REMARK    5  A    between atoms: O_12  and  C_13 
ROOT
HETATM    1  N   UNL     1      -3.222   1.555   0.029  1.00  0.00    -0.300 N 
HETATM    2  C   UNL     1      -4.584   1.336   0.012  1.00  0.00     0.370 C 
HETATM    3  O   UNL     1      -5.243   2.328  -0.263  1.00  0.00    -0.238 OA
HETATM    4  H   UNL     1      -3.075   2.523  -0.229  1.00  0.00     0.171 HD
ENDROOT
BRANCH   1   5
HETATM    5  C   UNL     1      -2.091   0.793   0.390  1.00  0.00     0.072 C 
HETATM    6  C   UNL     1      -2.026  -0.566   0.831  1.00  0.00     0.097 C 
HETATM    7  C   UNL     1      -0.897  -1.035   1.459  1.00  0.00     0.077 C 
HETATM    8  C   UNL     1       0.197  -0.608   0.773  1.00  0.00     0.092 C 
HETATM    9  C   UNL     1       0.287   0.721   0.324  1.00  0.00     0.069 C 
HETATM   10  C   UNL     1      -0.876   1.466   0.216  1.00  0.00     0.059 C 
HETATM   11 CL   UNL     1       1.756   1.367  -0.324  1.00  0.00    -0.081 Cl
BRANCH   6  12
HETATM   12  O   UNL     1      -2.598  -1.500   0.000  1.00  0.00    -0.354 OA
HETATM   13  C   UNL     1      -2.598  -2.500   0.000  1.00  0.00     0.210 C 
ENDBRANCH   6  12
BRANCH   8  14
HETATM   14  O   UNL     1       0.866  -1.500   0.000  1.00  0.00    -0.354 OA
HETATM   15  C   UNL     1       0.866  -2.500   0.000  1.00  0.00     0.210 C 
ENDBRANCH   8  14
ENDBRANCH   1   5
BRANCH   2  16
HETATM   16  O   UNL     1      -4.968   0.055   0.246  1.00  0.00    -0.255 OA
BRANCH  16  17
HETATM   17  C   UNL     1      -6.186  -0.743   0.173  1.00  0.00     0.152 A 
HETATM   18  C   UNL     1      -7.559  -0.232   0.093  1.00  0.00     0.205 A 
HETATM   19  C   UNL     1      -8.522  -1.168   0.048  1.00  0.00     0.057 A 
HETATM   20  O   UNL     1      -7.693   1.013   0.120  1.00  0.00    -0.286 OA
HETATM   21  C   UNL     1      -8.285  -2.642   0.053  1.00  0.00     0.206 A 
HETATM   22  O   UNL     1      -6.924  -3.070   0.127  1.00  0.00    -0.356 OA
HETATM   23  C   UNL     1      -6.000  -2.073   0.213  1.00  0.00     0.176 A 
ENDBRANCH  16  17
ENDBRANCH   2  16
TORSDOF 5
