REMARK  2 active torsions:
REMARK  status: ('A' for Active; 'I' for Inactive)
REMARK    1  A    between atoms: C_3  and  C_4 
REMARK    2  A    between atoms: N_7  and  C_8 
ROOT
HETATM    1  C   UNL     1       3.577   0.600   0.000  1.00  0.00     0.012 C 
HETATM    2  C   UNL     1       2.582   0.705   0.000  1.00  0.00    -0.113 C 
HETATM    3  C   UNL     1       1.588   0.809   0.000  1.00  0.00     0.134 C 
ENDROOT
BRANCH   3   4
HETATM    4  C   UNL     1       0.793  -0.349  -0.000  1.00  0.00    -0.010 A 
HETATM    5  C   UNL     1      -0.559  -0.266  -0.000  1.00  0.00     0.130 A 
HETATM    6  N   UNL     1      -0.988  -1.525  -0.000  1.00  0.00    -0.220 N 
HETATM    7  N   UNL     1       0.014  -2.453   0.000  1.00  0.00    -0.178 NA
HETATM    8  C   UNL     1       1.124  -1.710   0.000  1.00  0.00     0.148 A 
BRANCH   6   9
HETATM    9  C   UNL     1      -2.347  -1.740  -0.000  1.00  0.00     0.377 C 
HETATM   10  O   UNL     1      -2.817  -2.849   0.000  1.00  0.00    -0.281 OA
ENDBRANCH   6   9
ENDBRANCH   3   4
TORSDOF 2
