REMARK  3 active torsions:
REMARK  status: ('A' for Active; 'I' for Inactive)
REMARK    1  A    between atoms: C_2  and  S_3 
REMARK    2  A    between atoms: C_4  and  O_6 
REMARK    3  A    between atoms: O_6  and  C_7 
ROOT
HETATM    1  C   UNL     1       2.598   0.500   0.000  1.00  0.00     0.056 A 
HETATM    2  C   UNL     1       2.598   1.500   0.000  1.00  0.00     0.054 A 
HETATM    3  C   UNL     1       1.732   2.000   0.000  1.00  0.00     0.112 A 
HETATM    4  C   UNL     1       1.732   3.000   0.000  1.00  0.00     0.056 A 
ENDROOT
BRANCH   3   5
HETATM    5  O   UNL     1       0.719   1.547   1.075  1.00  0.00    -0.325 OA
BRANCH   5   6
HETATM    6  C   UNL     1      -0.363   0.801   0.745  1.00  0.00     0.398 C 
HETATM    7  O   UNL     1      -1.216   0.443   1.541  1.00  0.00    -0.276 OA
ENDBRANCH   5   6
ENDBRANCH   3   5
BRANCH   2   8
HETATM    8  S   UNL     1       3.630   1.970  -1.729  1.00  0.00    -0.177 SA
HETATM    9  H   UNL     1       4.856   1.848  -1.196  1.00  0.00     0.102 HD
ENDBRANCH   2   8
TORSDOF 3
