REMARK  2 active torsions:
REMARK  status: ('A' for Active; 'I' for Inactive)
REMARK    1  A    between atoms: C_4  and  O_5 
REMARK    2  A    between atoms: O_5  and  C_6 
ROOT
HETATM    1  C   UNL     1       1.707  -0.707   0.000  1.00  0.00     0.010 C 
HETATM    2  C   UNL     1       1.000   0.000   0.000  1.00  0.00    -0.014 C 
HETATM    3  C   UNL     1      -0.455   0.013   0.629  1.00  0.00     0.037 C 
HETATM    4  C   UNL     1      -0.530   1.507   0.196  1.00  0.00     0.132 C 
HETATM    5  C   UNL     1       1.005   1.526   0.444  1.00  0.00     0.037 C 
ENDROOT
BRANCH   4   6
HETATM    6  O   UNL     1      -1.335   2.386   0.999  1.00  0.00    -0.323 OA
BRANCH   6   7
HETATM    7  C   UNL     1      -2.649   2.397   0.672  1.00  0.00     0.398 C 
HETATM    8  O   UNL     1      -3.478   3.140   1.182  1.00  0.00    -0.276 OA
ENDBRANCH   6   7
ENDBRANCH   4   6
TORSDOF 2
