REMARK  6 active torsions:
REMARK  status: ('A' for Active; 'I' for Inactive)
REMARK    1  A    between atoms: C_2  and  O_3 
REMARK    2  A    between atoms: O_3  and  C_4 
REMARK    3  A    between atoms: C_4  and  C_6 
REMARK    4  A    between atoms: C_6  and  O_9 
REMARK    5  A    between atoms: O_9  and  C_10 
REMARK    6  A    between atoms: C_13  and  N_14 
ROOT
HETATM    1  C   UNL     1       0.292   0.086  -0.424  1.00  0.00     0.070 C 
HETATM    2  C   UNL     1      -0.163  -0.521   0.765  1.00  0.00     0.039 C 
HETATM    3  C   UNL     1      -1.481  -0.874   0.986  1.00  0.00     0.034 C 
HETATM    4  C   UNL     1      -2.397  -0.707  -0.034  1.00  0.00     0.054 C 
HETATM    5  C   UNL     1      -2.020   0.007  -1.186  1.00  0.00     0.034 C 
HETATM    6  C   UNL     1      -0.678   0.413  -1.369  1.00  0.00     0.039 C 
ENDROOT
BRANCH   1   7
HETATM    7  O   UNL     1       1.646   0.319  -0.746  1.00  0.00    -0.331 OA
BRANCH   7   8
HETATM    8  C   UNL     1       2.598  -0.500   0.000  1.00  0.00     0.148 C 
HETATM    9  C   UNL     1       3.598  -0.500   0.000  1.00  0.00     0.057 C 
HETATM   10  C   UNL     1       2.501   0.165   1.484  1.00  0.00     0.057 C 
BRANCH   8  11
HETATM   11  C   UNL     1       2.069  -1.995  -0.267  1.00  0.00     0.293 C 
HETATM   12  O   UNL     1       1.899  -2.456  -1.399  1.00  0.00    -0.262 OA
BRANCH  11  13
HETATM   13  O   UNL     1       1.949  -2.740   0.875  1.00  0.00    -0.319 OA
BRANCH  13  14
HETATM   14  C   UNL     1       1.719  -4.141   0.649  1.00  0.00     0.174 C 
HETATM   15  C   UNL     1       0.260  -4.422   0.336  1.00  0.00     0.034 C 
ENDBRANCH  13  14
ENDBRANCH  11  13
ENDBRANCH   8  11
ENDBRANCH   7   8
ENDBRANCH   1   7
BRANCH   4  16
HETATM   16  N   UNL     1      -3.590  -1.477   0.019  1.00  0.00    -0.247 N 
HETATM   17  N   UNL     1      -4.456  -1.557  -1.011  1.00  0.00     0.009 NA
HETATM   18  N   UNL     1      -5.040  -2.746  -0.949  1.00  0.00    -0.163 NA
HETATM   19  C   UNL     1      -4.617  -3.365   0.192  1.00  0.00     0.065 C 
HETATM   20  C   UNL     1      -3.865  -2.485   0.928  1.00  0.00     0.142 C 
HETATM   21  C   UNL     1      -4.863  -4.800   0.450  1.00  0.00     0.073 C 
ENDBRANCH   4  16
TORSDOF 6
