REMARK  5 active torsions:
REMARK  status: ('A' for Active; 'I' for Inactive)
REMARK    1  A    between atoms: S_2  and  C_3 
REMARK    2  A    between atoms: C_3  and  C_5 
REMARK    3  A    between atoms: C_5  and  C_6 
REMARK    4  A    between atoms: C_6  and  N_7 
REMARK    5  A    between atoms: N_7  and  N_8 
ROOT
HETATM    1  C   UNL     1       2.670   0.972   1.732  1.00  0.00     0.113 C 
ENDROOT
BRANCH   1   2
HETATM    2  C   UNL     1       3.879   0.346   2.424  1.00  0.00     0.103 C 
BRANCH   2   3
HETATM    3  C   UNL     1       5.155   0.584   1.647  1.00  0.00     0.156 C 
HETATM    4  O   UNL     1       6.139   1.121   2.142  1.00  0.00    -0.288 OA
BRANCH   3   5
HETATM    5  S   UNL     1       5.196   0.000   0.000  1.00  0.00    -0.232 SA
HETATM    6  C   UNL     1       5.196  -1.000   0.000  1.00  0.00     0.270 C 
ENDBRANCH   3   5
ENDBRANCH   2   3
ENDBRANCH   1   2
BRANCH   1   7
HETATM    7  N   UNL     1       1.869  -0.048   1.005  1.00  0.00    -0.259 NA
HETATM    8  H   UNL     1       2.495  -0.692   0.511  1.00  0.00     0.140 HD
BRANCH   7   9
HETATM    9  N   UNL     1       0.866   0.500   0.000  1.00  0.00    -0.260 NA
HETATM   10  C   UNL     1       0.866   1.500   0.000  1.00  0.00     0.129 A 
HETATM   11  C   UNL     1       0.000   0.000   0.000  1.00  0.00     0.129 A 
ENDBRANCH   7   9
ENDBRANCH   1   7
TORSDOF 5
