REMARK  4 active torsions:
REMARK  status: ('A' for Active; 'I' for Inactive)
REMARK    1  A    between atoms: C_2  and  C_3 
REMARK    2  A    between atoms: C_6  and  C_7 
REMARK    3  A    between atoms: C_7  and  O_9 
REMARK    4  A    between atoms: O_9  and  C_10 
ROOT
HETATM    1  C   UNL     1      -1.111   2.946  -0.198  1.00  0.00     0.322 C 
HETATM    2  O   UNL     1      -0.107   3.480  -0.658  1.00  0.00    -0.257 OA
ENDROOT
BRANCH   1   3
HETATM    3  C   UNL     1      -1.164   1.580   0.301  1.00  0.00     0.151 A 
HETATM    4  C   UNL     1      -1.955   0.923   1.228  1.00  0.00     0.046 A 
HETATM    5  C   UNL     1      -1.527  -0.427   1.255  1.00  0.00     0.036 A 
HETATM    6  C   UNL     1      -0.475  -0.520   0.369  1.00  0.00     0.053 A 
HETATM    7  O   UNL     1      -0.250   0.694  -0.204  1.00  0.00    -0.309 OA
BRANCH   6   8
HETATM    8  C   UNL     1       0.452  -1.601  -0.058  1.00  0.00     0.060 C 
HETATM    9  C   UNL     1      -0.054  -2.999   0.252  1.00  0.00     0.012 C 
ENDBRANCH   6   8
ENDBRANCH   1   3
BRANCH   1  10
HETATM   10  O   UNL     1      -2.281   3.657  -0.056  1.00  0.00    -0.268 OA
BRANCH  10  11
HETATM   11  C   UNL     1      -3.529   3.083  -0.367  1.00  0.00     0.147 C 
HETATM   12  C   UNL     1      -4.692   3.473   0.474  1.00  0.00     0.187 C 
HETATM   13  C   UNL     1      -6.049   3.020   0.012  1.00  0.00     0.112 C 
HETATM   14  O   UNL     1      -4.542   4.168   1.476  1.00  0.00    -0.290 OA
HETATM   15  C   UNL     1      -5.884   1.648  -0.606  1.00  0.00     0.182 C 
HETATM   16  O   UNL     1      -4.969   1.672  -1.709  1.00  0.00    -0.360 OA
HETATM   17  C   UNL     1      -3.773   2.278  -1.413  1.00  0.00     0.175 C 
ENDBRANCH  10  11
ENDBRANCH   1  10
TORSDOF 4
