REMARK  6 active torsions:
REMARK  status: ('A' for Active; 'I' for Inactive)
REMARK    1  A    between atoms: C_2  and  O_3 
REMARK    2  A    between atoms: O_3  and  C_4 
REMARK    3  A    between atoms: C_9  and  C_10 
REMARK    4  A    between atoms: C_10  and  S_12 
REMARK    5  A    between atoms: C_10  and  C_14 
REMARK    6  A    between atoms: C_14  and  O_15 
ROOT
HETATM    1  C   UNL     1       1.366   0.366   0.000  1.00  0.00     0.247 C 
HETATM    2  C   UNL     1       1.476   1.530   0.970  1.00  0.00     0.093 C 
HETATM    3  N   UNL     1       1.619   2.443   1.692  1.00  0.00    -0.194 NA
ENDROOT
BRANCH   1   4
HETATM    4  C   UNL     1       0.866  -0.500   0.000  1.00  0.00     0.072 C 
HETATM    5  C   UNL     1       0.366  -1.366   0.000  1.00  0.00     0.036 C 
BRANCH   4   6
HETATM    6  C   UNL     1      -0.720   0.296   0.466  1.00  0.00    -0.003 C 
HETATM    7  C   UNL     1      -1.723  -0.168   1.353  1.00  0.00     0.076 C 
HETATM    8  C   UNL     1      -2.758   0.687   1.781  1.00  0.00     0.037 C 
HETATM    9  C   UNL     1      -2.972   1.922   1.181  1.00  0.00     0.003 C 
HETATM   10  C   UNL     1      -2.183   2.290   0.111  1.00  0.00     0.001 C 
HETATM   11  C   UNL     1      -1.100   1.486  -0.253  1.00  0.00     0.012 C 
BRANCH   7  12
HETATM   12  O   UNL     1      -1.908  -1.472   1.731  1.00  0.00    -0.351 OA
BRANCH  12  13
HETATM   13  C   UNL     1      -2.608  -2.287   0.751  1.00  0.00     0.171 C 
HETATM   14  C   UNL     1      -3.661  -1.637  -0.148  1.00  0.00     0.034 C 
ENDBRANCH  12  13
ENDBRANCH   7  12
ENDBRANCH   4   6
BRANCH   4  15
HETATM   15  S   UNL     1       2.057  -1.252   1.632  1.00  0.00    -0.155 SA
HETATM   16  C   UNL     1       3.666  -1.437   0.706  1.00  0.00     0.091 C 
ENDBRANCH   4  15
ENDBRANCH   1   4
BRANCH   1  17
HETATM   17  O   UNL     1       1.317   0.940  -1.406  1.00  0.00    -0.379 OA
HETATM   18  H   UNL     1       1.769   0.324  -2.011  1.00  0.00     0.211 HD
ENDBRANCH   1  17
TORSDOF 6
