REMARK  8 active torsions:
REMARK  status: ('A' for Active; 'I' for Inactive)
REMARK    1  A    between atoms: N_4  and  C_5 
REMARK    2  A    between atoms: C_5  and  C_6 
REMARK    3  A    between atoms: C_6  and  N_7 
REMARK    4  A    between atoms: N_7  and  C_8 
REMARK    5  A    between atoms: N_7  and  C_13 
REMARK    6  A    between atoms: C_8  and  C_9 
REMARK    7  A    between atoms: C_9  and  N_10 
REMARK    8  A    between atoms: C_13  and  C_14 
ROOT
HETATM    1  N   UNL     1       3.992  -2.772   0.797  1.00  0.00    -0.409 N 
ENDROOT
BRANCH   1   2
HETATM    2  C   UNL     1       3.569  -1.522   0.171  1.00  0.00     0.138 C 
BRANCH   2   3
HETATM    3  C   UNL     1       2.722  -1.788  -1.085  1.00  0.00     0.165 C 
BRANCH   3   4
HETATM    4  N   UNL     1       1.385  -1.271  -0.906  1.00  0.00    -0.282 N 
HETATM    5  C   UNL     1       1.137   0.012  -1.230  1.00  0.00     0.136 C 
HETATM    6  C   UNL     1       0.809   0.588   0.000  1.00  0.00     0.065 C 
HETATM    7  C   UNL     1       0.809   1.588   0.000  1.00  0.00     0.073 C 
HETATM    8  N   UNL     1       0.423  -0.414   0.828  1.00  0.00    -0.164 NA
HETATM    9  N   UNL     1       0.658  -1.556   0.194  1.00  0.00     0.004 NA
ENDBRANCH   3   4
ENDBRANCH   2   3
ENDBRANCH   1   2
BRANCH   1  10
HETATM   10  C   UNL     1       3.105  -3.372   1.802  1.00  0.00     0.147 C 
BRANCH  10  11
HETATM   11  C   UNL     1       1.769  -3.903   1.207  1.00  0.00     0.290 C 
BRANCH  11  12
HETATM   12  N   UNL     1       1.309  -5.295   1.375  1.00  0.00     0.081 N 
HETATM   13  C   UNL     1       0.011  -5.416   0.672  1.00  0.00     0.309 C 
HETATM   14  C   UNL     1       2.262  -6.240   0.804  1.00  0.00     0.309 C 
ENDBRANCH  11  12
ENDBRANCH  10  11
ENDBRANCH   1  10
BRANCH   1  15
HETATM   15  C   UNL     1       5.418  -2.796   1.081  1.00  0.00     0.120 C 
BRANCH  15  16
HETATM   16  C   UNL     1       6.071  -3.382  -0.188  1.00  0.00    -0.005 C 
HETATM   17  C   UNL     1       5.529  -4.790  -0.456  1.00  0.00     0.011 C 
HETATM   18  C   UNL     1       7.588  -3.387  -0.079  1.00  0.00     0.011 C 
ENDBRANCH  15  16
ENDBRANCH   1  15
TORSDOF 8
