REMARK  3 active torsions:
REMARK  status: ('A' for Active; 'I' for Inactive)
REMARK    1  A    between atoms: C_2  and  C_3 
REMARK    2  A    between atoms: C_3  and  O_5 
REMARK    3  A    between atoms: O_5  and  C_6 
ROOT
HETATM    1  C   UNL     1      -0.273   1.013  -0.144  1.00  0.00     0.276 C 
HETATM    2  O   UNL     1      -0.716   1.665   0.799  1.00  0.00    -0.264 OA
ENDROOT
BRANCH   1   3
HETATM    3  C   UNL     1       0.858  -0.017   0.014  1.00  0.00     0.062 C 
HETATM    4  C   UNL     1       2.211   0.653  -0.175  1.00  0.00     0.030 C 
HETATM    5  C   UNL     1       0.727  -0.685   1.405  1.00  0.00     0.027 C 
HETATM    6  C   UNL     1      -0.220  -1.870   1.194  1.00  0.00     0.028 C 
HETATM    7  C   UNL     1       0.053  -2.227  -0.230  1.00  0.00    -0.029 C 
HETATM    8  C   UNL     1       0.659  -1.224  -0.877  1.00  0.00    -0.011 C 
ENDBRANCH   1   3
BRANCH   1   9
HETATM    9  O   UNL     1      -0.768   1.030  -1.428  1.00  0.00    -0.272 OA
BRANCH   9  10
HETATM   10  C   UNL     1      -2.156   1.121  -1.324  1.00  0.00     0.146 C 
HETATM   11  C   UNL     1      -2.824   2.393  -0.933  1.00  0.00     0.186 C 
HETATM   12  C   UNL     1      -4.263   2.309  -0.494  1.00  0.00     0.112 C 
HETATM   13  O   UNL     1      -2.242   3.474  -1.042  1.00  0.00    -0.290 OA
HETATM   14  C   UNL     1      -4.628   0.866  -0.195  1.00  0.00     0.182 C 
HETATM   15  O   UNL     1      -4.284  -0.007  -1.279  1.00  0.00    -0.360 OA
HETATM   16  C   UNL     1      -2.939   0.060  -1.547  1.00  0.00     0.175 C 
ENDBRANCH   9  10
ENDBRANCH   1   9
TORSDOF 3
