REMARK  3 active torsions:
REMARK  status: ('A' for Active; 'I' for Inactive)
REMARK    1  A    between atoms: C_12  and  O_13 
REMARK    2  A    between atoms: C_12  and  C_14 
REMARK    3  A    between atoms: C_14  and  O_16 
ROOT
HETATM    1  C   UNL     1       3.502   1.787  -1.281  1.00  0.00     0.015 C 
HETATM    2  C   UNL     1       1.938   1.926  -1.414  1.00  0.00     0.063 A 
HETATM    3  C   UNL     1       0.866   1.500   0.000  1.00  0.00     0.056 A 
HETATM    4  S   UNL     1       1.366   0.634   0.000  1.00  0.00    -0.221 SA
HETATM    5  C   UNL     1       1.155  -0.156   1.633  1.00  0.00     0.065 C 
HETATM    6  C   UNL     1      -0.671   0.710  -0.555  1.00  0.00     0.044 A 
HETATM    7  C   UNL     1      -1.739   0.497   0.380  1.00  0.00    -0.003 A 
HETATM    8  C   UNL     1      -2.930  -0.113  -0.015  1.00  0.00    -0.002 A 
HETATM    9  C   UNL     1      -3.093  -0.542  -1.329  1.00  0.00    -0.001 A 
HETATM   10  C   UNL     1      -2.071  -0.361  -2.261  1.00  0.00    -0.002 A 
HETATM   11  C   UNL     1      -0.874   0.259  -1.893  1.00  0.00    -0.003 A 
HETATM   12  C   UNL     1       0.366   2.366   0.000  1.00  0.00     0.236 A 
ENDROOT
BRANCH  12  13
HETATM   13  O   UNL     1      -0.325   2.999  -1.200  1.00  0.00    -0.379 OA
HETATM   14  H   UNL     1      -0.740   3.826  -0.879  1.00  0.00     0.211 HD
ENDBRANCH  12  13
BRANCH  12  15
HETATM   15  C   UNL     1       1.029   3.725   0.498  1.00  0.00     0.293 C 
HETATM   16  O   UNL     1       0.455   4.803   0.358  1.00  0.00    -0.262 OA
BRANCH  15  17
HETATM   17  O   UNL     1       2.271   3.607   1.046  1.00  0.00    -0.324 OA
HETATM   18  C   UNL     1       2.959   4.859   1.106  1.00  0.00     0.213 C 
ENDBRANCH  15  17
ENDBRANCH  12  15
TORSDOF 3
