REMARK  3 active torsions:
REMARK  status: ('A' for Active; 'I' for Inactive)
REMARK    1  A    between atoms: C_2  and  O_3 
REMARK    2  A    between atoms: O_3  and  C_4 
REMARK    3  A    between atoms: C_4  and  C_5 
ROOT
HETATM    1  C   UNL     1      -1.088  -0.402   0.024  1.00  0.00     0.058 A 
HETATM    2  C   UNL     1      -2.260   0.360  -0.001  1.00  0.00     0.032 A 
HETATM    3  C   UNL     1      -2.164   1.750  -0.054  1.00  0.00     0.046 A 
HETATM    4  C   UNL     1      -0.909   2.336  -0.085  1.00  0.00     0.133 A 
HETATM    5  F   UNL     1      -0.784   3.668  -0.130  1.00  0.00    -0.205 F 
HETATM    6  C   UNL     1       0.207   1.522  -0.071  1.00  0.00     0.159 A 
HETATM    7  N   UNL     1       0.145   0.171  -0.022  1.00  0.00    -0.260 NA
ENDROOT
BRANCH   1   8
HETATM    8  C   UNL     1      -1.184  -1.915   0.071  1.00  0.00     0.237 C 
BRANCH   8   9
HETATM    9  O   UNL     1       0.105  -2.496   0.312  1.00  0.00    -0.322 OA
BRANCH   9  10
HETATM   10  C   UNL     1       0.179  -3.817   0.053  1.00  0.00     0.398 C 
HETATM   11  O   UNL     1      -0.736  -4.538  -0.315  1.00  0.00    -0.276 OA
ENDBRANCH   9  10
ENDBRANCH   8   9
ENDBRANCH   1   8
TORSDOF 3
