REMARK  8 active torsions:
REMARK  status: ('A' for Active; 'I' for Inactive)
REMARK    1  A    between atoms: N_6  and  C_7 
REMARK    2  A    between atoms: C_7  and  C_8 
REMARK    3  A    between atoms: N_13  and  C_14 
REMARK    4  A    between atoms: C_14  and  C_15 
REMARK    5  A    between atoms: C_15  and  C_16 
REMARK    6  A    between atoms: C_15  and  O_18 
REMARK    7  A    between atoms: C_16  and  O_17 
REMARK    8  A    between atoms: O_18  and  C_19 
ROOT
HETATM    1  C   UNL     1      -3.123  -1.439  -0.903  1.00  0.00     0.049 C 
HETATM    2  C   UNL     1      -3.439  -0.322   0.094  1.00  0.00     0.111 C 
HETATM    3  C   UNL     1      -2.633  -0.369   1.389  1.00  0.00     0.049 C 
HETATM    4  C   UNL     1      -4.908  -0.540   0.485  1.00  0.00     0.255 C 
HETATM    5  O   UNL     1      -5.316  -1.484   1.158  1.00  0.00    -0.270 OA
HETATM    6  N   UNL     1      -5.685   0.478   0.007  1.00  0.00    -0.265 N 
HETATM    7  C   UNL     1      -4.861   1.483  -0.406  1.00  0.00     0.328 C 
HETATM    8  O   UNL     1      -5.152   2.664  -0.526  1.00  0.00    -0.247 OA
HETATM    9  N   UNL     1      -3.543   0.999  -0.518  1.00  0.00    -0.314 N 
ENDROOT
BRANCH   9  10
HETATM   10  C   UNL     1      -2.486   2.028  -0.620  1.00  0.00     0.163 C 
BRANCH  10  11
HETATM   11  C   UNL     1      -0.948   1.764  -0.665  1.00  0.00     0.170 C 
BRANCH  11  12
HETATM   12  C   UNL     1      -0.290   2.254   0.649  1.00  0.00     0.198 C 
BRANCH  12  13
HETATM   13  O   UNL     1      -0.603   3.628   0.927  1.00  0.00    -0.398 OA
HETATM   14  H   UNL     1      -0.049   4.136   0.304  1.00  0.00     0.209 HD
ENDBRANCH  12  13
ENDBRANCH  11  12
BRANCH  11  15
HETATM   15  O   UNL     1      -0.674   0.417  -1.055  1.00  0.00    -0.336 OA
BRANCH  15  16
HETATM   16  C   UNL     1       0.570  -0.151  -0.797  1.00  0.00     0.141 C 
HETATM   17  C   UNL     1       1.850   0.501  -1.135  1.00  0.00     0.205 C 
HETATM   18  C   UNL     1       2.949  -0.137  -0.686  1.00  0.00     0.057 C 
HETATM   19  O   UNL     1       1.777   1.564  -1.797  1.00  0.00    -0.286 OA
HETATM   20  C   UNL     1       2.930  -1.439   0.047  1.00  0.00     0.206 C 
HETATM   21  O   UNL     1       1.675  -2.132   0.081  1.00  0.00    -0.356 OA
HETATM   22  C   UNL     1       0.583  -1.391  -0.279  1.00  0.00     0.175 C 
ENDBRANCH  15  16
ENDBRANCH  11  15
ENDBRANCH  10  11
ENDBRANCH   9  10
BRANCH   6  23
HETATM   23  C   UNL     1      -7.036   0.616   0.524  1.00  0.00     0.171 C 
BRANCH  23  24
HETATM   24  C   UNL     1      -8.080   1.348  -0.257  1.00  0.00     0.163 A 
HETATM   25  C   UNL     1      -8.072   2.851  -0.356  1.00  0.00     0.201 A 
HETATM   26  O   UNL     1      -7.719   2.008  -1.466  1.00  0.00    -0.380 OA
ENDBRANCH  23  24
ENDBRANCH   6  23
TORSDOF 8
