REMARK  5 active torsions:
REMARK  status: ('A' for Active; 'I' for Inactive)
REMARK    1  A    between atoms: C_2  and  C_3 
REMARK    2  A    between atoms: C_3  and  N_4 
REMARK    3  A    between atoms: C_3  and  C_5 
REMARK    4  A    between atoms: C_5  and  C_6 
REMARK    5  A    between atoms: C_6  and  S_8 
ROOT
HETATM    1  C   UNL     1       4.208   0.738   0.936  1.00  0.00     0.225 C 
ENDROOT
BRANCH   1   2
HETATM    2  C   UNL     1       4.330  -0.500   0.000  1.00  0.00     0.031 C 
HETATM    3  C   UNL     1       4.330  -1.500   0.000  1.00  0.00     0.007 C 
ENDBRANCH   1   2
BRANCH   1   4
HETATM    4  N   UNL     1       4.386   1.957   0.079  1.00  0.00     0.083 N 
HETATM    5  H   UNL     1       5.236   2.471   0.295  1.00  0.00     0.313 HD
HETATM    6  H   UNL     1       3.602   2.599   0.123  1.00  0.00     0.313 HD
ENDBRANCH   1   4
BRANCH   1   7
HETATM    7  C   UNL     1       2.877   0.686   1.556  1.00  0.00     0.123 C 
BRANCH   7   8
HETATM    8  C   UNL     1       1.396   0.646   1.387  1.00  0.00     0.157 C 
HETATM    9  O   UNL     1       0.630   1.392   1.994  1.00  0.00    -0.288 OA
BRANCH   8  10
HETATM   10  S   UNL     1       0.866  -0.500   0.000  1.00  0.00    -0.232 SA
HETATM   11  C   UNL     1       0.000   0.000   0.000  1.00  0.00     0.270 C 
ENDBRANCH   8  10
ENDBRANCH   7   8
ENDBRANCH   1   7
TORSDOF 5
