REMARK  2 active torsions:
REMARK  status: ('A' for Active; 'I' for Inactive)
REMARK    1  A    between atoms: N_4  and  C_5 
REMARK    2  A    between atoms: C_7  and  C_8 
ROOT
HETATM    1  C   UNL     1      -2.967  -2.020   0.089  1.00  0.00     0.095 A 
HETATM    2  C   UNL     1      -2.979  -3.429   0.093  1.00  0.00     0.044 A 
HETATM    3  C   UNL     1      -4.183  -4.150   0.048  1.00  0.00    -0.025 A 
HETATM    4  C   UNL     1      -5.349  -3.404  -0.019  1.00  0.00     0.126 A 
HETATM    5  N   UNL     1      -5.381  -2.056   0.003  1.00  0.00    -0.246 NA
HETATM    6  C   UNL     1      -4.204  -1.384   0.060  1.00  0.00     0.154 A 
HETATM    7 CL   UNL     1      -4.500   0.311   0.102  1.00  0.00    -0.060 Cl
ENDROOT
BRANCH   1   8
HETATM    8  N   UNL     1      -1.726  -1.334   0.062  1.00  0.00    -0.244 N 
HETATM    9  C   UNL     1      -0.455  -1.877   0.068  1.00  0.00     0.142 A 
HETATM   10  C   UNL     1       0.397  -0.816  -0.124  1.00  0.00     0.065 A 
HETATM   11  C   UNL     1       1.864  -0.802  -0.280  1.00  0.00     0.073 C 
HETATM   12  N   UNL     1      -0.334   0.331  -0.173  1.00  0.00    -0.163 NA
HETATM   13  N   UNL     1      -1.612   0.008  -0.042  1.00  0.00     0.010 NA
ENDBRANCH   1   8
BRANCH   3  14
HETATM   14  C   UNL     1      -4.144  -5.652  -0.035  1.00  0.00     0.154 C 
HETATM   15 CL   UNL     1      -5.599  -6.461   0.573  1.00  0.00    -0.126 Cl
ENDBRANCH   3  14
TORSDOF 2
