REMARK  2 active torsions:
REMARK  status: ('A' for Active; 'I' for Inactive)
REMARK    1  A    between atoms: S_2  and  C_3 
REMARK       I    between atoms: C_3  and  N_5 
REMARK    2  A    between atoms: N_5  and  C_6 
ROOT
HETATM    1  C   UNL     1      -0.301   0.085   0.103  1.00  0.00     0.080 A 
HETATM    2  C   UNL     1      -1.634   0.555   0.000  1.00  0.00    -0.032 A 
HETATM    3  C   UNL     1      -2.832  -0.359  -0.040  1.00  0.00     0.050 C 
HETATM    4  C   UNL     1      -1.884   1.942  -0.044  1.00  0.00     0.009 A 
HETATM    5  C   UNL     1      -0.842   2.862  -0.026  1.00  0.00     0.004 A 
HETATM    6  C   UNL     1       0.467   2.407   0.041  1.00  0.00     0.045 A 
HETATM    7  C   UNL     1       0.733   1.039   0.109  1.00  0.00     0.143 A 
HETATM    8  F   UNL     1       2.016   0.697   0.265  1.00  0.00    -0.204 F 
ENDROOT
BRANCH   1   9
HETATM    9  N   UNL     1      -0.097  -1.313   0.245  1.00  0.00    -0.315 N 
HETATM   10  C   UNL     1       1.064  -2.029   0.120  1.00  0.00     0.283 C 
HETATM   11  O   UNL     1       2.167  -1.649  -0.217  1.00  0.00    -0.260 OA
HETATM   12  H   UNL     1      -0.912  -1.857   0.467  1.00  0.00     0.170 HD
BRANCH  10  13
HETATM   13  S   UNL     1       0.851  -3.744   0.513  1.00  0.00    -0.073 SA
HETATM   14  C   UNL     1      -0.772  -4.168  -0.134  1.00  0.00     0.100 C 
ENDBRANCH  10  13
ENDBRANCH   1   9
TORSDOF 2
