REMARK  4 active torsions:
REMARK  status: ('A' for Active; 'I' for Inactive)
REMARK    1  A    between atoms: C_2  and  N_3 
REMARK    2  A    between atoms: C_6  and  C_7 
REMARK    3  A    between atoms: C_7  and  N_8 
REMARK    4  A    between atoms: N_8  and  C_9 
ROOT
HETATM    1  N   UNL     1       0.081  -0.630  -0.708  1.00  0.00     0.094 N 
HETATM    2  C   UNL     1       0.081   0.678  -0.028  1.00  0.00     0.275 A 
HETATM    3  C   UNL     1       1.597   0.654   0.058  1.00  0.00     0.067 A 
HETATM    4  C   UNL     1       1.567  -0.688  -0.705  1.00  0.00     0.242 A 
ENDROOT
BRANCH   4   5
HETATM    5  C   UNL     1       2.306  -1.822   0.007  1.00  0.00     0.157 C 
BRANCH   5   6
HETATM    6  N   UNL     1       3.748  -1.763  -0.256  1.00  0.00    -0.366 N 
HETATM    7  H   UNL     1       4.274  -2.609  -0.066  1.00  0.00     0.161 HD
BRANCH   6   8
HETATM    8  C   UNL     1       4.565  -0.670  -0.220  1.00  0.00     0.348 C 
HETATM    9  O   UNL     1       5.777  -0.759  -0.102  1.00  0.00    -0.284 OA
ENDBRANCH   6   8
ENDBRANCH   5   6
ENDBRANCH   4   5
BRANCH   1  10
HETATM   10  C   UNL     1      -0.707  -1.707   0.000  1.00  0.00     0.268 C 
HETATM   11  C   UNL     1      -1.673  -1.448   0.000  1.00  0.00     0.037 C 
ENDBRANCH   1  10
TORSDOF 4
