REMARK  17 active torsions:
REMARK  status: ('A' for Active; 'I' for Inactive)
REMARK    1  A    between atoms: C_2  and  C_4 
REMARK    2  A    between atoms: C_4  and  C_5 
REMARK    3  A    between atoms: C_5  and  C_7 
REMARK    4  A    between atoms: C_7  and  O_8 
REMARK    5  A    between atoms: C_7  and  C_9 
REMARK    6  A    between atoms: C_9  and  C_11 
REMARK    7  A    between atoms: C_11  and  C_12 
REMARK    8  A    between atoms: C_11  and  C_30 
REMARK    9  A    between atoms: C_12  and  C_13 
REMARK   10  A    between atoms: C_13  and  O_14 
REMARK   11  A    between atoms: O_14  and  C_15 
REMARK   12  A    between atoms: C_15  and  N_17 
REMARK   13  A    between atoms: N_17  and  C_18 
REMARK   14  A    between atoms: N_21  and  C_22 
REMARK   15  A    between atoms: C_22  and  C_23 
REMARK   16  A    between atoms: C_30  and  C_32 
REMARK   17  A    between atoms: C_37  and  O_38 
ROOT
HETATM    1  C   UNL     1       2.025   0.858   0.711  1.00  0.00     0.135 C 
ENDROOT
BRANCH   1   2
HETATM    2  C   UNL     1       2.762  -0.270  -0.006  1.00  0.00     0.174 C 
HETATM    3  O   UNL     1       2.344  -0.770  -1.052  1.00  0.00    -0.294 OA
BRANCH   2   4
HETATM    4  C   UNL     1       4.039  -0.820   0.644  1.00  0.00     0.258 C 
BRANCH   4   5
HETATM    5  C   UNL     1       3.995  -2.331   0.758  1.00  0.00     0.169 C 
HETATM    6  O   UNL     1       3.487  -2.851   1.754  1.00  0.00    -0.294 OA
BRANCH   5   7
HETATM    7  C   UNL     1       4.611  -3.117  -0.364  1.00  0.00     0.159 C 
BRANCH   7   8
HETATM    8  C   UNL     1       4.557  -4.602  -0.145  1.00  0.00     0.130 C 
HETATM    9  C   UNL     1       3.233  -5.288  -0.348  1.00  0.00     0.091 C 
HETATM   10  O   UNL     1       5.558  -5.226   0.210  1.00  0.00    -0.298 OA
ENDBRANCH   7   8
ENDBRANCH   5   7
ENDBRANCH   4   5
BRANCH   4  11
HETATM   11  O   UNL     1       4.334  -0.330   1.951  1.00  0.00    -0.380 OA
HETATM   12  H   UNL     1       3.920  -0.940   2.595  1.00  0.00     0.211 HD
ENDBRANCH   4  11
ENDBRANCH   2   4
ENDBRANCH   1   2
BRANCH   1  13
HETATM   13  C   UNL     1       2.958   2.092   0.830  1.00  0.00     0.047 C 
BRANCH  13  14
HETATM   14  C   UNL     1       2.907   3.182  -0.253  1.00  0.00     0.179 C 
BRANCH  14  15
HETATM   15  O   UNL     1       4.226   3.789  -0.387  1.00  0.00    -0.327 OA
BRANCH  15  16
HETATM   16  C   UNL     1       5.238   3.014  -0.870  1.00  0.00     0.214 C 
HETATM   17  S   UNL     1       5.033   2.080  -2.243  1.00  0.00    -0.033 SA
BRANCH  16  18
HETATM   18  N   UNL     1       6.377   3.169  -0.113  1.00  0.00    -0.325 N 
HETATM   19  H   UNL     1       6.539   4.109   0.221  1.00  0.00     0.169 HD
BRANCH  18  20
HETATM   20  C   UNL     1       7.449   2.304  -0.204  1.00  0.00     0.071 A 
HETATM   21  C   UNL     1       7.428   0.984   0.150  1.00  0.00     0.143 A 
HETATM   22  N   UNL     1       8.665   0.473  -0.153  1.00  0.00    -0.275 N 
HETATM   23  N   UNL     1       9.487   1.411  -0.673  1.00  0.00    -0.183 NA
HETATM   24  C   UNL     1       8.771   2.537  -0.620  1.00  0.00     0.169 A 
BRANCH  22  25
HETATM   25  C   UNL     1       8.989  -0.964  -0.118  1.00  0.00     0.189 C 
BRANCH  25  26
HETATM   26  C   UNL     1      10.428  -1.407   0.012  1.00  0.00    -0.038 A 
HETATM   27  C   UNL     1      10.710  -2.770  -0.236  1.00  0.00     0.009 A 
HETATM   28  C   UNL     1      12.017  -3.260  -0.136  1.00  0.00     0.001 A 
HETATM   29  C   UNL     1      13.051  -2.406   0.216  1.00  0.00     0.000 A 
HETATM   30  C   UNL     1      12.785  -1.063   0.495  1.00  0.00     0.001 A 
HETATM   31  C   UNL     1      11.478  -0.582   0.417  1.00  0.00     0.009 A 
ENDBRANCH  25  26
ENDBRANCH  22  25
ENDBRANCH  18  20
ENDBRANCH  16  18
ENDBRANCH  15  16
ENDBRANCH  14  15
ENDBRANCH  13  14
ENDBRANCH   1  13
BRANCH   1  32
HETATM   32  C   UNL     1       0.622   1.164   0.186  1.00  0.00     0.173 C 
HETATM   33  O   UNL     1       0.304   2.306  -0.157  1.00  0.00    -0.291 OA
BRANCH  32  34
HETATM   34  C   UNL     1      -0.469   0.123   0.172  1.00  0.00     0.044 A 
HETATM   35  C   UNL     1      -1.780   0.501  -0.183  1.00  0.00     0.079 A 
HETATM   36  C   UNL     1      -2.822  -0.428  -0.214  1.00  0.00     0.037 A 
HETATM   37  C   UNL     1      -2.575  -1.761   0.096  1.00  0.00     0.003 A 
HETATM   38  C   UNL     1      -1.290  -2.156   0.458  1.00  0.00     0.001 A 
HETATM   39  C   UNL     1      -0.248  -1.220   0.514  1.00  0.00     0.018 A 
BRANCH  35  40
HETATM   40  O   UNL     1      -2.137   1.783  -0.511  1.00  0.00    -0.360 OA
HETATM   41  H   UNL     1      -1.323   2.337  -0.499  1.00  0.00     0.217 HD
ENDBRANCH  35  40
ENDBRANCH  32  34
ENDBRANCH   1  32
TORSDOF 17
