REMARK  4 active torsions:
REMARK  status: ('A' for Active; 'I' for Inactive)
REMARK    1  A    between atoms: N_4  and  C_5 
REMARK    2  A    between atoms: C_5  and  C_6 
REMARK    3  A    between atoms: C_6  and  C_9 
REMARK    4  A    between atoms: C_9  and  O_11 
ROOT
HETATM    1  C   UNL     1       2.269  -2.632  -0.285  1.00  0.00     0.165 C 
ENDROOT
BRANCH   1   2
HETATM    2  N   UNL     1       1.348  -1.524  -0.163  1.00  0.00    -0.282 N 
HETATM    3  C   UNL     1       1.378  -0.356  -0.857  1.00  0.00     0.136 C 
HETATM    4  C   UNL     1       0.809   0.588   0.000  1.00  0.00     0.065 C 
HETATM    5  C   UNL     1       0.809   1.588   0.000  1.00  0.00     0.073 C 
HETATM    6  N   UNL     1       0.243  -0.138   1.032  1.00  0.00    -0.164 NA
HETATM    7  N   UNL     1       0.553  -1.420   0.905  1.00  0.00     0.004 NA
ENDBRANCH   1   2
BRANCH   1   8
HETATM    8  C   UNL     1       3.677  -2.361   0.310  1.00  0.00     0.056 C 
HETATM    9  C   UNL     1       4.633  -1.773  -0.744  1.00  0.00     0.028 C 
HETATM   10  C   UNL     1       3.674  -1.405   1.523  1.00  0.00     0.028 C 
BRANCH   8  11
HETATM   11  C   UNL     1       4.205  -3.704   0.778  1.00  0.00     0.149 C 
HETATM   12  O   UNL     1       4.360  -4.074   1.931  1.00  0.00    -0.649 OA
BRANCH  11  13
HETATM   13  O   UNL     1       4.474  -4.554  -0.230  1.00  0.00    -0.776 OA
HETATM   14  H   UNL     1       4.801  -5.359   0.231  1.00  0.00     0.167 HD
ENDBRANCH  11  13
ENDBRANCH   8  11
ENDBRANCH   1   8
TORSDOF 4
