REMARK  5 active torsions:
REMARK  status: ('A' for Active; 'I' for Inactive)
REMARK    1  A    between atoms: N_2  and  C_3 
REMARK    2  A    between atoms: N_2  and  C_5 
REMARK    3  A    between atoms: C_5  and  C_6 
REMARK    4  A    between atoms: C_6  and  O_7 
REMARK    5  A    between atoms: C_6  and  C_8 
ROOT
HETATM    1  C   UNL     1       2.620  -0.199  -0.712  1.00  0.00     0.158 C 
ENDROOT
BRANCH   1   2
HETATM    2  N   UNL     1       2.598  -1.500   0.000  1.00  0.00    -0.361 N 
HETATM    3  C   UNL     1       1.732  -2.000   0.000  1.00  0.00     0.152 C 
BRANCH   2   4
HETATM    4  C   UNL     1       3.856  -2.034   0.347  1.00  0.00     0.350 C 
HETATM    5  O   UNL     1       4.941  -1.536   0.095  1.00  0.00    -0.284 OA
ENDBRANCH   2   4
ENDBRANCH   1   2
BRANCH   1   6
HETATM    6  C   UNL     1       1.685   0.927  -0.204  1.00  0.00     0.164 C 
BRANCH   6   7
HETATM    7  O   UNL     1       2.032   1.284   1.140  1.00  0.00    -0.392 OA
HETATM    8  H   UNL     1       1.483   2.062   1.370  1.00  0.00     0.210 HD
ENDBRANCH   6   7
BRANCH   6   9
HETATM    9  C   UNL     1       0.200   0.611  -0.282  1.00  0.00     0.255 C 
HETATM   10  F   UNL     1      -0.490   1.786  -0.152  1.00  0.00    -0.253 F 
ENDBRANCH   6   9
ENDBRANCH   1   6
TORSDOF 5
