REMARK  8 active torsions:
REMARK  status: ('A' for Active; 'I' for Inactive)
REMARK    1  A    between atoms: C_2  and  S_3 
REMARK    2  A    between atoms: S_3  and  C_4 
REMARK    3  A    between atoms: C_4  and  C_5 
REMARK    4  A    between atoms: C_5  and  N_7 
REMARK    5  A    between atoms: N_7  and  C_8 
REMARK    6  A    between atoms: C_8  and  C_9 
REMARK    7  A    between atoms: C_9  and  S_10 
REMARK    8  A    between atoms: S_10  and  C_11 
ROOT
HETATM    1  N   UNL     1       3.831  -0.657   0.229  1.00  0.00     0.089 N 
HETATM    2  H   UNL     1       3.863  -1.626  -0.090  1.00  0.00     0.316 HD
ENDROOT
BRANCH   1   3
HETATM    3  C   UNL     1       5.196   0.000   0.000  1.00  0.00     0.225 C 
HETATM    4  C   UNL     1       5.196   1.000   0.000  1.00  0.00     0.043 C 
BRANCH   3   5
HETATM    5  C   UNL     1       5.577  -0.510  -1.435  1.00  0.00     0.109 C 
BRANCH   5   6
HETATM    6  S   UNL     1       7.287  -0.014  -1.718  1.00  0.00    -0.167 SA
BRANCH   6   7
HETATM    7  C   UNL     1       7.794  -0.500   0.000  1.00  0.00     0.069 C 
HETATM    8  C   UNL     1       7.794  -1.500   0.000  1.00  0.00     0.016 C 
ENDBRANCH   6   7
ENDBRANCH   5   6
ENDBRANCH   3   5
ENDBRANCH   1   3
BRANCH   1   9
HETATM    9  C   UNL     1       2.634   0.028  -0.279  1.00  0.00     0.280 C 
BRANCH   9  10
HETATM   10  C   UNL     1       1.431  -0.910  -0.114  1.00  0.00     0.111 C 
BRANCH  10  11
HETATM   11  S   UNL     1      -0.114  -0.118  -0.637  1.00  0.00    -0.100 SA
BRANCH  11  12
HETATM   12  C   UNL     1      -1.199  -1.470  -0.355  1.00  0.00     0.304 C 
HETATM   13  O   UNL     1      -2.416  -1.348  -0.451  1.00  0.00    -0.295 OA
ENDBRANCH  11  12
ENDBRANCH  10  11
ENDBRANCH   9  10
ENDBRANCH   1   9
TORSDOF 8
