REMARK  4 active torsions:
REMARK  status: ('A' for Active; 'I' for Inactive)
REMARK    1  A    between atoms: N_4  and  C_5 
REMARK    2  A    between atoms: C_8  and  C_9 
REMARK    3  A    between atoms: C_11  and  N_12 
REMARK    4  A    between atoms: C_14  and  N_15 
ROOT
HETATM    1  C   UNL     1      -2.960   1.384  -0.045  1.00  0.00     0.054 A 
HETATM    2  C   UNL     1      -4.188   0.720  -0.066  1.00  0.00     0.032 A 
HETATM    3  C   UNL     1      -5.379   1.451  -0.069  1.00  0.00     0.017 A 
HETATM    4  C   UNL     1      -5.394   2.859  -0.051  1.00  0.00     0.012 A 
HETATM    5  C   UNL     1      -4.146   3.508  -0.031  1.00  0.00     0.017 A 
HETATM    6  C   UNL     1      -2.940   2.785  -0.030  1.00  0.00     0.032 A 
ENDROOT
BRANCH   4   7
HETATM    7  C   UNL     1      -6.679   3.591  -0.049  1.00  0.00     0.166 A 
HETATM    8  N   UNL     1      -6.662   4.918   0.065  1.00  0.00    -0.198 NA
HETATM    9  C   UNL     1      -7.859   5.484   0.092  1.00  0.00     0.204 A 
HETATM   10  N   UNL     1      -9.014   4.844  -0.019  1.00  0.00    -0.188 NA
HETATM   11  C   UNL     1      -8.918   3.534  -0.150  1.00  0.00     0.204 A 
HETATM   12  N   UNL     1      -7.788   2.855  -0.153  1.00  0.00    -0.198 NA
BRANCH   9  13
HETATM   13  N   UNL     1      -7.914   6.857   0.216  1.00  0.00    -0.270 NA
HETATM   14  H   UNL     1      -7.058   7.277  -0.119  1.00  0.00     0.127 HD
HETATM   15  H   UNL     1      -8.781   7.206  -0.171  1.00  0.00     0.127 HD
ENDBRANCH   9  13
BRANCH  11  16
HETATM   16  N   UNL     1     -10.088   2.807  -0.254  1.00  0.00    -0.270 NA
HETATM   17  H   UNL     1     -10.853   3.310   0.172  1.00  0.00     0.127 HD
HETATM   18  H   UNL     1      -9.935   1.856   0.053  1.00  0.00     0.127 HD
ENDBRANCH  11  16
ENDBRANCH   4   7
BRANCH   1  19
HETATM   19  N   UNL     1      -1.749   0.644  -0.031  1.00  0.00    -0.247 N 
HETATM   20  C   UNL     1      -1.587  -0.723  -0.025  1.00  0.00     0.142 A 
HETATM   21  C   UNL     1      -0.228  -0.923   0.021  1.00  0.00     0.065 A 
HETATM   22  C   UNL     1       0.522  -2.192   0.061  1.00  0.00     0.073 C 
HETATM   23  N   UNL     1       0.399   0.290   0.023  1.00  0.00    -0.163 NA
HETATM   24  N   UNL     1      -0.531   1.237  -0.009  1.00  0.00     0.009 NA
ENDBRANCH   1  19
TORSDOF 4
