REMARK  5 active torsions:
REMARK  status: ('A' for Active; 'I' for Inactive)
REMARK    1  A    between atoms: C_6  and  N_7 
REMARK    2  A    between atoms: N_7  and  C_8 
REMARK    3  A    between atoms: C_8  and  C_9 
REMARK    4  A    between atoms: C_9  and  S_10 
REMARK    5  A    between atoms: S_10  and  C_11 
ROOT
HETATM    1  C   UNL     1       0.866   1.500   0.000  1.00  0.00     0.149 A 
HETATM    2  N   UNL     1       0.866   0.500   0.000  1.00  0.00    -0.415 N 
HETATM    3  C   UNL     1       2.283   0.147   0.338  1.00  0.00     0.116 C 
HETATM    4  C   UNL     1       2.472  -1.327   0.476  1.00  0.00     0.022 C 
HETATM    5  C   UNL     1       1.149  -1.683   1.097  1.00  0.00     0.039 C 
HETATM    6  C   UNL     1       0.000  -1.000   0.000  1.00  0.00     0.237 C 
HETATM    7  C   UNL     1       0.000   0.000   0.000  1.00  0.00     0.145 A 
ENDROOT
BRANCH   6   8
HETATM    8  N   UNL     1      -1.573  -1.543   0.417  1.00  0.00     0.090 N 
HETATM    9  H   UNL     1      -2.220  -1.016  -0.177  1.00  0.00     0.316 HD
BRANCH   8  10
HETATM   10  C   UNL     1      -1.723  -3.001   0.053  1.00  0.00     0.280 C 
BRANCH  10  11
HETATM   11  C   UNL     1      -3.064  -3.729   0.116  1.00  0.00     0.111 C 
BRANCH  11  12
HETATM   12  S   UNL     1      -4.550  -2.713   0.031  1.00  0.00    -0.100 SA
BRANCH  12  13
HETATM   13  C   UNL     1      -5.717  -4.024   0.163  1.00  0.00     0.304 C 
HETATM   14  O   UNL     1      -6.911  -3.819   0.168  1.00  0.00    -0.295 OA
ENDBRANCH  12  13
ENDBRANCH  11  12
ENDBRANCH  10  11
ENDBRANCH   8  10
ENDBRANCH   6   8
TORSDOF 5
