REMARK  8 active torsions:
REMARK  status: ('A' for Active; 'I' for Inactive)
REMARK    1  A    between atoms: O_2  and  C_3 
REMARK    2  A    between atoms: C_3  and  C_5 
REMARK    3  A    between atoms: C_5  and  C_6 
REMARK    4  A    between atoms: C_6  and  N_7 
REMARK    5  A    between atoms: C_6  and  C_12 
REMARK    6  A    between atoms: N_7  and  C_8 
REMARK    7  A    between atoms: C_8  and  S_10 
REMARK    8  A    between atoms: C_12  and  O_14 
ROOT
HETATM    1  C   UNL     1       2.112   1.949   1.898  1.00  0.00     0.192 C 
ENDROOT
BRANCH   1   2
HETATM    2  C   UNL     1       3.494   1.443   2.353  1.00  0.00     0.146 C 
BRANCH   2   3
HETATM    3  C   UNL     1       4.551   1.825   1.303  1.00  0.00     0.260 C 
HETATM    4  O   UNL     1       5.514   2.510   1.689  1.00  0.00    -0.265 OA
BRANCH   3   5
HETATM    5  O   UNL     1       4.330   1.500   0.000  1.00  0.00    -0.326 OA
HETATM    6  C   UNL     1       4.330   0.500   0.000  1.00  0.00     0.213 C 
ENDBRANCH   3   5
ENDBRANCH   2   3
ENDBRANCH   1   2
BRANCH   1   7
HETATM    7  N   UNL     1       2.321   3.221   1.138  1.00  0.00    -0.361 N 
HETATM    8  H   UNL     1       3.099   3.796   1.457  1.00  0.00     0.162 HD
BRANCH   7   9
HETATM    9  C   UNL     1       1.472   3.990   0.393  1.00  0.00     0.134 C 
HETATM   10  S   UNL     1       1.795   5.612   0.141  1.00  0.00    -0.053 SA
BRANCH   9  11
HETATM   11  S   UNL     1       0.360   3.148  -0.619  1.00  0.00    -0.105 SA
HETATM   12  C   UNL     1      -1.267   3.467   0.024  1.00  0.00     0.098 C 
ENDBRANCH   9  11
ENDBRANCH   7   9
ENDBRANCH   1   7
BRANCH   1  13
HETATM   13  C   UNL     1       1.320   0.663   1.503  1.00  0.00     0.281 C 
HETATM   14  O   UNL     1       1.027  -0.210   2.323  1.00  0.00    -0.263 OA
BRANCH  13  15
HETATM   15  O   UNL     1       1.054   0.569   0.196  1.00  0.00    -0.325 OA
HETATM   16  C   UNL     1      -0.058  -0.214  -0.243  1.00  0.00     0.213 C 
ENDBRANCH  13  15
ENDBRANCH   1  13
TORSDOF 8
