REMARK  2 active torsions:
REMARK  status: ('A' for Active; 'I' for Inactive)
REMARK    1  A    between atoms: S_2  and  C_3 
REMARK    2  A    between atoms: C_3  and  C_5 
ROOT
HETATM    1  C   UNL     1       0.740  -0.525   0.468  1.00  0.00     0.160 A 
HETATM    2  C   UNL     1      -0.342  -1.044   1.143  1.00  0.00     0.073 A 
HETATM    3  C   UNL     1      -1.148  -1.618   0.137  1.00  0.00     0.061 A 
HETATM    4  C   UNL     1      -2.387  -2.409   0.300  1.00  0.00     0.072 C 
HETATM    5  N   UNL     1      -0.632  -1.402  -1.078  1.00  0.00    -0.133 NA
HETATM    6  O   UNL     1       0.546  -0.712  -0.869  1.00  0.00    -0.209 OA
ENDROOT
BRANCH   1   7
HETATM    7  C   UNL     1       1.949   0.087   0.954  1.00  0.00     0.244 C 
HETATM    8  O   UNL     1       2.107   0.504   2.097  1.00  0.00    -0.278 OA
BRANCH   7   9
HETATM    9  S   UNL     1       3.288   0.116  -0.191  1.00  0.00    -0.090 SA
HETATM   10  C   UNL     1       3.626  -1.662  -0.263  1.00  0.00     0.099 C 
ENDBRANCH   7   9
ENDBRANCH   1   7
TORSDOF 2
