REMARK  4 active torsions:
REMARK  status: ('A' for Active; 'I' for Inactive)
REMARK    1  A    between atoms: C_2  and  N_13 
REMARK    2  A    between atoms: C_3  and  C_4 
REMARK    3  A    between atoms: C_4  and  C_5 
REMARK    4  A    between atoms: C_5  and  O_6 
ROOT
HETATM    1  C   UNL     1      -0.652   0.387  -0.324  1.00  0.00     0.129 C 
HETATM    2  C   UNL     1      -0.353   1.789   0.220  1.00  0.00     0.073 C 
HETATM    3  C   UNL     1      -1.595   2.657   0.260  1.00  0.00     0.178 C 
HETATM    4  O   UNL     1      -2.614   2.066   1.065  1.00  0.00    -0.359 OA
HETATM    5  C   UNL     1      -2.951   0.837   0.566  1.00  0.00     0.188 C 
HETATM    6  C   UNL     1      -2.164   0.024  -0.165  1.00  0.00     0.205 C 
HETATM    7  O   UNL     1      -2.485  -1.029  -0.789  1.00  0.00    -0.288 OA
ENDROOT
BRANCH   1   8
HETATM    8  C   UNL     1       0.249  -0.707   0.354  1.00  0.00     0.075 C 
BRANCH   8   9
HETATM    9  C   UNL     1       1.742  -0.908   0.129  1.00  0.00     0.008 C 
HETATM   10  C   UNL     1       2.808  -0.098  -0.025  1.00  0.00     0.073 C 
HETATM   11  C   UNL     1       2.935   1.384   0.023  1.00  0.00     0.074 C 
BRANCH  10  12
HETATM   12  N   UNL     1       4.121  -0.768  -0.200  1.00  0.00    -0.121 N 
HETATM   13  O   UNL     1       4.228  -1.964   0.098  1.00  0.00    -0.532 OA
HETATM   14  O   UNL     1       5.063  -0.071  -0.607  1.00  0.00    -0.532 OA
ENDBRANCH  10  12
ENDBRANCH   8   9
ENDBRANCH   1   8
BRANCH   1  15
HETATM   15  O   UNL     1      -0.374   0.384  -1.737  1.00  0.00    -0.381 OA
HETATM   16  H   UNL     1      -1.085  -0.233  -2.039  1.00  0.00     0.211 HD
ENDBRANCH   1  15
TORSDOF 4
