REMARK  1 active torsions:
REMARK  status: ('A' for Active; 'I' for Inactive)
REMARK    1  A    between atoms: C_2  and  C_3 
ROOT
HETATM    1  C   UNL     1      -3.057  -2.004   0.003  1.00  0.00    -0.022 A 
HETATM    2  C   UNL     1      -4.270  -1.253   0.047  1.00  0.00    -0.047 A 
HETATM    3  C   UNL     1      -5.658  -1.840   0.111  1.00  0.00     0.049 C 
HETATM    4  C   UNL     1      -4.202   0.164   0.001  1.00  0.00    -0.055 A 
HETATM    5  C   UNL     1      -5.413   1.068  -0.035  1.00  0.00     0.049 C 
HETATM    6  C   UNL     1      -2.959   0.805  -0.032  1.00  0.00     0.021 A 
HETATM    7  C   UNL     1      -1.769   0.080  -0.042  1.00  0.00    -0.006 A 
HETATM    8  C   UNL     1      -0.538   0.757  -0.061  1.00  0.00     0.025 A 
HETATM    9  C   UNL     1       0.654   0.042  -0.089  1.00  0.00    -0.001 A 
HETATM   10  C   UNL     1       0.552  -1.336  -0.092  1.00  0.00     0.114 A 
HETATM   11  N   UNL     1      -0.628  -2.009  -0.063  1.00  0.00    -0.243 NA
HETATM   12  C   UNL     1      -1.794  -1.328  -0.037  1.00  0.00     0.074 A 
HETATM   13  C   UNL     1       1.799  -2.152  -0.097  1.00  0.00     0.202 C 
HETATM   14  O   UNL     1       1.790  -3.374   0.009  1.00  0.00    -0.288 OA
HETATM   15  C   UNL     1       3.094  -1.362  -0.172  1.00  0.00     0.253 C 
HETATM   16  O   UNL     1       2.952  -0.068  -0.742  1.00  0.00    -0.379 OA
HETATM   17  C   UNL     1       1.989   0.713  -0.044  1.00  0.00     0.209 C 
ENDROOT
BRANCH   1  18
HETATM   18  C   UNL     1      -2.907  -3.530  -0.029  1.00  0.00     0.037 C 
HETATM   19  C   UNL     1      -4.076  -4.500   0.009  1.00  0.00     0.010 C 
ENDBRANCH   1  18
TORSDOF 1
