REMARK  4 active torsions:
REMARK  status: ('A' for Active; 'I' for Inactive)
REMARK    1  A    between atoms: N_4  and  C_5 
REMARK    2  A    between atoms: C_5  and  C_6 
REMARK    3  A    between atoms: C_6  and  O_7 
REMARK    4  A    between atoms: O_7  and  C_8 
ROOT
HETATM    1  C   UNL     1      -4.145   0.757   0.208  1.00  0.00     0.197 C 
ENDROOT
BRANCH   1   2
HETATM    2  C   UNL     1      -3.015   1.722  -0.121  1.00  0.00     0.172 C 
BRANCH   2   3
HETATM    3  N   UNL     1      -1.760   0.997  -0.063  1.00  0.00    -0.281 N 
HETATM    4  C   UNL     1      -1.407  -0.064  -0.851  1.00  0.00     0.136 A 
HETATM    5  C   UNL     1      -0.494  -0.749  -0.080  1.00  0.00     0.065 A 
HETATM    6  C   UNL     1       0.082  -2.092  -0.288  1.00  0.00     0.073 C 
HETATM    7  N   UNL     1      -0.225  -0.023   1.048  1.00  0.00    -0.164 NA
HETATM    8  N   UNL     1      -1.003   1.053   1.045  1.00  0.00     0.004 NA
ENDBRANCH   2   3
ENDBRANCH   1   2
BRANCH   1   9
HETATM    9  O   UNL     1      -5.413   1.408   0.160  1.00  0.00    -0.349 OA
BRANCH   9  10
HETATM   10  C   UNL     1      -6.496   0.568   0.215  1.00  0.00     0.068 A 
HETATM   11  C   UNL     1      -7.732   1.186   0.024  1.00  0.00     0.038 A 
HETATM   12  C   UNL     1      -8.909   0.430   0.018  1.00  0.00     0.026 A 
HETATM   13  C   UNL     1      -8.850  -0.947   0.208  1.00  0.00     0.034 A 
HETATM   14  C   UNL     1      -7.624  -1.574   0.421  1.00  0.00     0.026 A 
HETATM   15 CL   UNL     1     -10.291  -1.884   0.177  1.00  0.00    -0.084 Cl
HETATM   16  C   UNL     1      -6.451  -0.814   0.433  1.00  0.00     0.038 A 
ENDBRANCH   9  10
ENDBRANCH   1   9
TORSDOF 4
