REMARK  3 active torsions:
REMARK  status: ('A' for Active; 'I' for Inactive)
REMARK       I    between atoms: C_2  and  N_3 
REMARK    1  A    between atoms: C_2  and  O_14 
REMARK       I    between atoms: N_3  and  C_4 
REMARK    2  A    between atoms: C_4  and  C_6 
REMARK    3  A    between atoms: O_14  and  C_15 
ROOT
HETATM    1  O   UNL     1      -2.534   2.392  -0.042  1.00  0.00    -0.238 OA
HETATM    2  C   UNL     1      -2.603   1.177  -0.116  1.00  0.00     0.373 C 
HETATM    3  N   UNL     1      -3.749   0.424  -0.148  1.00  0.00    -0.268 N 
HETATM    4  C   UNL     1      -5.029   0.939  -0.083  1.00  0.00     0.266 C 
HETATM    5  O   UNL     1      -5.274   2.144  -0.069  1.00  0.00    -0.267 OA
HETATM    6  H   UNL     1      -3.604  -0.577  -0.176  1.00  0.00     0.174 HD
ENDROOT
BRANCH   2   7
HETATM    7  O   UNL     1      -1.524   0.338  -0.178  1.00  0.00    -0.255 OA
BRANCH   7   8
HETATM    8  C   UNL     1      -0.175   0.760  -0.067  1.00  0.00     0.148 C 
HETATM    9  C   UNL     1       0.848  -0.306  -0.177  1.00  0.00     0.187 C 
HETATM   10  C   UNL     1       2.293   0.042   0.035  1.00  0.00     0.112 C 
HETATM   11  O   UNL     1       0.504  -1.472  -0.381  1.00  0.00    -0.290 OA
HETATM   12  C   UNL     1       2.591   1.526  -0.000  1.00  0.00     0.182 C 
HETATM   13  O   UNL     1       1.549   2.403   0.404  1.00  0.00    -0.360 OA
HETATM   14  C   UNL     1       0.263   1.995   0.212  1.00  0.00     0.175 C 
ENDBRANCH   7   8
ENDBRANCH   2   7
BRANCH   4  15
HETATM   15  C   UNL     1      -6.160  -0.028  -0.052  1.00  0.00     0.109 A 
HETATM   16  C   UNL     1      -7.478   0.442  -0.037  1.00  0.00     0.135 A 
HETATM   17  C   UNL     1      -8.562  -0.437  -0.008  1.00  0.00     0.043 A 
HETATM   18  F   UNL     1      -7.761   1.752  -0.051  1.00  0.00    -0.205 F 
HETATM   19  C   UNL     1      -8.346  -1.812   0.009  1.00  0.00     0.006 A 
HETATM   20  C   UNL     1      -7.042  -2.299  -0.002  1.00  0.00     0.043 A 
HETATM   21  C   UNL     1      -5.965  -1.410  -0.032  1.00  0.00     0.135 A 
HETATM   22  F   UNL     1      -4.728  -1.930  -0.041  1.00  0.00    -0.205 F 
ENDBRANCH   4  15
TORSDOF 3
