REMARK  3 active torsions:
REMARK  status: ('A' for Active; 'I' for Inactive)
REMARK    1  A    between atoms: C_2  and  S_3 
REMARK    2  A    between atoms: C_2  and  C_6 
REMARK    3  A    between atoms: S_3  and  C_4 
ROOT
HETATM    1  C   UNL     1       0.368  -0.869   0.016  1.00  0.00    -0.044 A 
HETATM    2  C   UNL     1       0.512  -2.252  -0.185  1.00  0.00     0.010 A 
HETATM    3  C   UNL     1      -0.598  -3.105  -0.158  1.00  0.00     0.024 A 
HETATM    4  C   UNL     1      -1.870  -2.586   0.066  1.00  0.00     0.034 A 
HETATM    5 CL   UNL     1      -3.237  -3.630   0.059  1.00  0.00    -0.084 Cl
HETATM    6  C   UNL     1      -2.037  -1.225   0.296  1.00  0.00     0.024 A 
HETATM    7  C   UNL     1      -0.925  -0.380   0.289  1.00  0.00     0.010 A 
ENDROOT
BRANCH   1   8
HETATM    8  C   UNL     1       1.542   0.107  -0.035  1.00  0.00     0.083 C 
HETATM    9  C   UNL     1       2.927  -0.527  -0.222  1.00  0.00     0.027 C 
BRANCH   8  10
HETATM   10  S   UNL     1       1.328   1.293  -1.426  1.00  0.00    -0.092 SA
BRANCH  10  11
HETATM   11  C   UNL     1       0.714   2.663  -0.516  1.00  0.00     0.304 C 
HETATM   12  O   UNL     1       1.275   3.078   0.489  1.00  0.00    -0.295 OA
ENDBRANCH  10  11
ENDBRANCH   8  10
ENDBRANCH   1   8
TORSDOF 3
