REMARK  4 active torsions:
REMARK  status: ('A' for Active; 'I' for Inactive)
REMARK    1  A    between atoms: C_2  and  N_3 
REMARK    2  A    between atoms: N_3  and  C_4 
REMARK    3  A    between atoms: C_4  and  C_5 
REMARK    4  A    between atoms: C_5  and  C_6 
ROOT
HETATM    1  C   UNL     1       0.554  -1.678  -0.035  1.00  0.00     0.060 C 
ENDROOT
BRANCH   1   2
HETATM    2  C   UNL     1      -0.175  -3.019   0.035  1.00  0.00     0.126 C 
BRANCH   2   3
HETATM    3  N   UNL     1       0.729  -4.152   0.064  1.00  0.00    -0.368 N 
HETATM    4  H   UNL     1       1.721  -4.011   0.202  1.00  0.00     0.161 HD
BRANCH   3   5
HETATM    5  C   UNL     1       0.239  -5.434   0.066  1.00  0.00     0.348 C 
HETATM    6  O   UNL     1      -0.941  -5.743   0.006  1.00  0.00    -0.284 OA
ENDBRANCH   3   5
ENDBRANCH   2   3
ENDBRANCH   1   2
BRANCH   1   7
HETATM    7  C   UNL     1      -0.343  -0.482  -0.045  1.00  0.00    -0.033 A 
HETATM    8  C   UNL     1       0.066   0.839  -0.052  1.00  0.00     0.148 A 
HETATM    9  O   UNL     1      -0.998   1.680  -0.054  1.00  0.00    -0.334 OA
HETATM   10  C   UNL     1      -2.110   0.906  -0.050  1.00  0.00     0.142 A 
HETATM   11  C   UNL     1      -1.768  -0.425  -0.048  1.00  0.00     0.033 A 
ENDBRANCH   1   7
TORSDOF 4
