REMARK  13 active torsions:
REMARK  status: ('A' for Active; 'I' for Inactive)
REMARK       I    between atoms: C_3  and  N_5 
REMARK    1  A    between atoms: N_5  and  C_6 
REMARK    2  A    between atoms: C_6  and  C_7 
REMARK    3  A    between atoms: C_7  and  C_8 
REMARK    4  A    between atoms: C_8  and  C_9 
REMARK    5  A    between atoms: C_9  and  C_10 
REMARK    6  A    between atoms: C_10  and  C_11 
REMARK    7  A    between atoms: C_11  and  C_12 
REMARK    8  A    between atoms: C_12  and  C_13 
REMARK    9  A    between atoms: C_13  and  C_14 
REMARK   10  A    between atoms: C_14  and  C_15 
REMARK   11  A    between atoms: C_15  and  C_16 
REMARK   12  A    between atoms: C_16  and  C_17 
REMARK   13  A    between atoms: C_17  and  O_19 
ROOT
HETATM    1  C   UNL     1      12.124   0.000   0.000  1.00  0.00     0.274 C 
HETATM    2  S   UNL     1      12.124   1.000   0.000  1.00  0.00    -0.218 SA
HETATM    3  C   UNL     1      11.988   2.637  -0.172  1.00  0.00     0.228 C 
HETATM    4  O   UNL     1      12.608   3.451   0.491  1.00  0.00    -0.270 OA
HETATM    5  N   UNL     1      10.961   2.937  -1.020  1.00  0.00    -0.256 NA
HETATM    6  H   UNL     1      10.888   2.240  -1.747  1.00  0.00     0.131 HD
ENDROOT
BRANCH   5   7
HETATM    7  C   UNL     1       9.703   3.075  -0.327  1.00  0.00     0.096 C 
BRANCH   7   8
HETATM    8  C   UNL     1       9.165   1.696   0.063  1.00  0.00     0.015 C 
BRANCH   8   9
HETATM    9  C   UNL     1       7.863   1.834   0.758  1.00  0.00     0.001 C 
BRANCH   9  10
HETATM   10  C   UNL     1       6.951   0.686   0.376  1.00  0.00     0.000 C 
BRANCH  10  11
HETATM   11  C   UNL     1       5.693   1.424   0.073  1.00  0.00     0.000 C 
BRANCH  11  12
HETATM   12  C   UNL     1       4.506   0.564  -0.148  1.00  0.00     0.000 C 
BRANCH  12  13
HETATM   13  C   UNL     1       3.389   1.579  -0.157  1.00  0.00     0.000 C 
BRANCH  13  14
HETATM   14  C   UNL     1       2.107   0.838  -0.181  1.00  0.00     0.000 C 
BRANCH  14  15
HETATM   15  C   UNL     1       0.969   1.818  -0.027  1.00  0.00     0.001 C 
BRANCH  15  16
HETATM   16  C   UNL     1      -0.243   0.935   0.019  1.00  0.00     0.010 C 
BRANCH  16  17
HETATM   17  C   UNL     1      -1.543   1.691   0.064  1.00  0.00     0.110 C 
BRANCH  17  18
HETATM   18  C   UNL     1      -2.679   0.718  -0.052  1.00  0.00     0.139 C 
HETATM   19  O   UNL     1      -3.828   1.015  -0.299  1.00  0.00    -0.650 OA
BRANCH  18  20
HETATM   20  O   UNL     1      -2.340  -0.570   0.161  1.00  0.00    -0.776 OA
HETATM   21  H   UNL     1      -3.162  -1.075   0.007  1.00  0.00     0.167 HD
ENDBRANCH  18  20
ENDBRANCH  17  18
ENDBRANCH  16  17
ENDBRANCH  15  16
ENDBRANCH  14  15
ENDBRANCH  13  14
ENDBRANCH  12  13
ENDBRANCH  11  12
ENDBRANCH  10  11
ENDBRANCH   9  10
ENDBRANCH   8   9
ENDBRANCH   7   8
ENDBRANCH   5   7
TORSDOF 13
