REMARK  1 active torsions:
REMARK  status: ('A' for Active; 'I' for Inactive)
REMARK    1  A    between atoms: N_4  and  C_5 
ROOT
HETATM    1  C   UNL     1      -3.010  -1.945   0.051  1.00  0.00     0.070 A 
HETATM    2  C   UNL     1      -3.036  -3.360   0.048  1.00  0.00     0.032 A 
HETATM    3  C   UNL     1      -4.238  -4.074   0.048  1.00  0.00     0.002 A 
HETATM    4  C   UNL     1      -5.444  -3.396   0.051  1.00  0.00     0.001 A 
HETATM    5  C   UNL     1      -5.449  -2.004   0.049  1.00  0.00     0.020 A 
HETATM    6  C   UNL     1      -4.247  -1.265   0.047  1.00  0.00     0.034 A 
HETATM    7  I   UNL     1      -4.580   0.823   0.016  1.00  0.00    -0.042 I 
ENDROOT
BRANCH   1   8
HETATM    8  N   UNL     1      -1.728  -1.308   0.054  1.00  0.00    -0.246 N 
HETATM    9  C   UNL     1      -0.478  -1.903   0.012  1.00  0.00     0.142 A 
HETATM   10  C   UNL     1       0.425  -0.866   0.004  1.00  0.00     0.065 A 
HETATM   11  C   UNL     1       1.898  -0.896  -0.066  1.00  0.00     0.073 C 
HETATM   12  N   UNL     1      -0.255   0.308   0.070  1.00  0.00    -0.163 NA
HETATM   13  N   UNL     1      -1.549   0.030   0.103  1.00  0.00     0.009 NA
ENDBRANCH   1   8
TORSDOF 1
