REMARK  4 active torsions:
REMARK  status: ('A' for Active; 'I' for Inactive)
REMARK    1  A    between atoms: S_2  and  C_3 
REMARK    2  A    between atoms: C_3  and  C_4 
REMARK    3  A    between atoms: C_3  and  C_7 
REMARK    4  A    between atoms: C_4  and  O_5 
ROOT
HETATM    1  C   UNL     1       0.729  -0.753  -0.281  1.00  0.00     0.214 C 
ENDROOT
BRANCH   1   2
HETATM    2  S   UNL     1       1.152  -2.421   0.451  1.00  0.00    -0.155 SA
HETATM    3  C   UNL     1      -0.231  -3.401  -0.179  1.00  0.00     0.090 C 
ENDBRANCH   1   2
BRANCH   1   4
HETATM    4  C   UNL     1       1.944   0.154  -0.126  1.00  0.00     0.326 C 
HETATM    5  F   UNL     1       1.723   1.324  -0.774  1.00  0.00    -0.218 F 
BRANCH   4   6
HETATM    6  O   UNL     1       3.093  -0.410  -0.751  1.00  0.00    -0.366 OA
HETATM    7  H   UNL     1       3.184  -1.309  -0.387  1.00  0.00     0.213 HD
ENDBRANCH   4   6
ENDBRANCH   1   4
BRANCH   1   8
HETATM    8  C   UNL     1      -0.460  -0.064   0.365  1.00  0.00     0.404 C 
HETATM    9  F   UNL     1      -1.592  -0.789   0.202  1.00  0.00    -0.170 F 
HETATM   10  F   UNL     1      -0.280   0.111   1.694  1.00  0.00    -0.170 F 
HETATM   11  F   UNL     1      -0.705   1.149  -0.173  1.00  0.00    -0.170 F 
ENDBRANCH   1   8
TORSDOF 4
