REMARK  3 active torsions:
REMARK  status: ('A' for Active; 'I' for Inactive)
REMARK    1  A    between atoms: C_7  and  O_8 
REMARK    2  A    between atoms: C_7  and  C_9 
REMARK    3  A    between atoms: C_14  and  O_15 
ROOT
HETATM    1  O   UNL     1       3.182   0.111  -0.666  1.00  0.00    -0.288 OA
HETATM    2  C   UNL     1       3.244  -0.989  -0.039  1.00  0.00     0.205 C 
HETATM    3  C   UNL     1       4.283  -1.443   0.716  1.00  0.00     0.188 C 
HETATM    4  O   UNL     1       4.494  -2.726   1.110  1.00  0.00    -0.359 OA
HETATM    5  C   UNL     1       3.894  -3.625   0.173  1.00  0.00     0.178 C 
HETATM    6  C   UNL     1       2.399  -3.412   0.122  1.00  0.00     0.073 C 
HETATM    7  C   UNL     1       2.037  -1.967  -0.328  1.00  0.00     0.132 C 
ENDROOT
BRANCH   7   8
HETATM    8  O   UNL     1       1.907  -1.991  -1.773  1.00  0.00    -0.381 OA
HETATM    9  H   UNL     1       2.343  -1.131  -1.990  1.00  0.00     0.211 HD
ENDBRANCH   7   8
BRANCH   7  10
HETATM   10  C   UNL     1       0.542  -1.618   0.281  1.00  0.00     0.057 C 
HETATM   11  C   UNL     1      -0.436  -2.701  -0.212  1.00  0.00     0.011 C 
HETATM   12  C   UNL     1      -1.865  -2.424   0.175  1.00  0.00     0.001 C 
HETATM   13  C   UNL     1      -2.080  -0.969   0.526  1.00  0.00     0.002 C 
HETATM   14  C   UNL     1      -1.000   0.000   0.000  1.00  0.00     0.032 C 
HETATM   15  C   UNL     1       0.000   0.000   0.000  1.00  0.00     0.125 C 
BRANCH  15  16
HETATM   16  O   UNL     1       0.173   0.667   1.411  1.00  0.00    -0.395 OA
HETATM   17  H   UNL     1       1.105   0.979   1.423  1.00  0.00     0.210 HD
ENDBRANCH  15  16
ENDBRANCH   7  10
TORSDOF 3
