REMARK  5 active torsions:
REMARK  status: ('A' for Active; 'I' for Inactive)
REMARK    1  A    between atoms: S_2  and  C_3 
REMARK    2  A    between atoms: C_3  and  C_5 
REMARK    3  A    between atoms: C_5  and  C_6 
REMARK    4  A    between atoms: C_6  and  N_7 
REMARK    5  A    between atoms: C_6  and  C_8 
ROOT
HETATM    1  C   UNL     1       1.405  -0.997  -0.060  1.00  0.00     0.229 C 
ENDROOT
BRANCH   1   2
HETATM    2  C   UNL     1       1.326  -2.479  -0.449  1.00  0.00     0.126 C 
BRANCH   2   3
HETATM    3  C   UNL     1       2.480  -3.279   0.107  1.00  0.00     0.187 C 
HETATM    4  O   UNL     1       3.318  -2.838   0.884  1.00  0.00    -0.285 OA
BRANCH   3   5
HETATM    5  S   UNL     1       2.582  -4.955  -0.438  1.00  0.00    -0.097 SA
HETATM    6  C   UNL     1       0.970  -5.562   0.100  1.00  0.00     0.098 C 
ENDBRANCH   3   5
ENDBRANCH   2   3
ENDBRANCH   1   2
BRANCH   1   7
HETATM    7  N   UNL     1       2.468  -0.304  -0.787  1.00  0.00     0.083 N 
HETATM    8  H   UNL     1       3.368  -0.685  -0.482  1.00  0.00     0.313 HD
HETATM    9  H   UNL     1       2.484   0.672  -0.491  1.00  0.00     0.313 HD
ENDBRANCH   1   7
BRANCH   1  10
HETATM   10  C   UNL     1       0.123  -0.297  -0.433  1.00  0.00     0.019 A 
HETATM   11  C   UNL     1      -0.375   0.881   0.368  1.00  0.00     0.007 A 
HETATM   12  C   UNL     1      -1.098  -0.435   0.443  1.00  0.00     0.007 A 
ENDBRANCH   1  10
TORSDOF 5
