REMARK  3 active torsions:
REMARK  status: ('A' for Active; 'I' for Inactive)
REMARK    1  A    between atoms: C_6  and  C_7 
REMARK    2  A    between atoms: C_7  and  O_8 
REMARK    3  A    between atoms: O_8  and  C_9 
ROOT
HETATM    1  C   UNL     1      -0.866  -1.500   0.000  1.00  0.00     0.072 C 
HETATM    2  C   UNL     1      -0.866  -0.500   0.000  1.00  0.00     0.048 A 
HETATM    3  C   UNL     1      -2.022   0.285  -0.164  1.00  0.00     0.143 A 
HETATM    4  N   UNL     1      -2.099   1.644  -0.190  1.00  0.00    -0.269 NA
HETATM    5  C   UNL     1      -0.924   2.280  -0.067  1.00  0.00     0.145 A 
HETATM    6  C   UNL     1       0.269   1.597   0.057  1.00  0.00     0.076 A 
HETATM    7  N   UNL     1       0.295   0.232   0.065  1.00  0.00    -0.253 NA
ENDROOT
BRANCH   6   8
HETATM    8  C   UNL     1       1.561   2.376   0.116  1.00  0.00     0.238 C 
BRANCH   8   9
HETATM    9  O   UNL     1       2.673   1.551   0.484  1.00  0.00    -0.322 OA
BRANCH   9  10
HETATM   10  C   UNL     1       3.885   2.019   0.125  1.00  0.00     0.398 C 
HETATM   11  O   UNL     1       4.939   1.451   0.364  1.00  0.00    -0.276 OA
ENDBRANCH   9  10
ENDBRANCH   8   9
ENDBRANCH   6   8
TORSDOF 3
