REMARK  2 active torsions:
REMARK  status: ('A' for Active; 'I' for Inactive)
REMARK    1  A    between atoms: S_2  and  C_3 
REMARK    2  A    between atoms: C_3  and  C_5 
ROOT
HETATM    1  C   UNL     1       0.993  -0.656  -0.588  1.00  0.00     0.302 C 
HETATM    2  C   UNL     1       1.383   0.565   0.263  1.00  0.00     0.074 C 
HETATM    3  C   UNL     1       2.840   0.214  -0.025  1.00  0.00     0.273 C 
HETATM    4  N   UNL     1       2.429  -1.038  -0.664  1.00  0.00     0.096 N 
HETATM    5  H   UNL     1       2.643  -1.868  -0.101  1.00  0.00     0.316 HD
ENDROOT
BRANCH   1   6
HETATM    6  C   UNL     1       0.111  -1.757   0.119  1.00  0.00     0.218 C 
HETATM    7  O   UNL     1       0.470  -2.505   1.027  1.00  0.00    -0.283 OA
BRANCH   6   8
HETATM    8  S   UNL     1      -1.531  -1.874  -0.514  1.00  0.00    -0.095 SA
HETATM    9  C   UNL     1      -2.190  -0.341   0.171  1.00  0.00     0.099 C 
ENDBRANCH   6   8
ENDBRANCH   1   6
TORSDOF 2
