REMARK  2 active torsions:
REMARK  status: ('A' for Active; 'I' for Inactive)
REMARK    1  A    between atoms: S_2  and  C_3 
REMARK    2  A    between atoms: C_3  and  C_4 
ROOT
HETATM    1  C   UNL     1       0.667   0.442  -0.037  1.00  0.00     0.104 C 
ENDROOT
BRANCH   1   2
HETATM    2  S   UNL     1       2.244   1.008  -0.766  1.00  0.00    -0.171 SA
HETATM    3  C   UNL     1       3.409  -0.039   0.143  1.00  0.00     0.089 C 
ENDBRANCH   1   2
BRANCH   1   4
HETATM    4  C   UNL     1       0.430  -1.053  -0.163  1.00  0.00     0.232 C 
HETATM    5  F   UNL     1      -0.846  -1.323   0.232  1.00  0.00    -0.255 F 
ENDBRANCH   1   4
TORSDOF 2
