REMARK  2 active torsions:
REMARK  status: ('A' for Active; 'I' for Inactive)
REMARK    1  A    between atoms: N_1  and  C_2 
REMARK    2  A    between atoms: N_4  and  C_5 
ROOT
HETATM    1  C   UNL     1       1.180  -0.256  -0.000  1.00  0.00     0.041 A 
HETATM    2  C   UNL     1       1.054  -1.595   0.000  1.00  0.00     0.122 A 
HETATM    3  N   UNL     1      -0.169  -2.264  -0.000  1.00  0.00    -0.330 N 
HETATM    4  C   UNL     1      -1.409  -1.507   0.000  1.00  0.00     0.158 A 
HETATM    5  C   UNL     1      -1.227  -0.037  -0.000  1.00  0.00    -0.005 A 
HETATM    6  C   UNL     1      -0.020   0.546  -0.000  1.00  0.00     0.028 A 
ENDROOT
BRANCH   1   7
HETATM    7  N   UNL     1       2.377   0.391   0.000  1.00  0.00    -0.398 N 
HETATM    8  H   UNL     1       3.238  -0.142   0.000  1.00  0.00     0.156 HD
HETATM    9  H   UNL     1       2.418   1.401  -0.000  1.00  0.00     0.156 HD
ENDBRANCH   1   7
BRANCH   3  10
HETATM   10  C   UNL     1      -0.144  -3.661   0.000  1.00  0.00     0.355 C 
HETATM   11  O   UNL     1       0.853  -4.377   0.000  1.00  0.00    -0.283 OA
ENDBRANCH   3  10
TORSDOF 2
