REMARK  8 active torsions:
REMARK  status: ('A' for Active; 'I' for Inactive)
REMARK    1  A    between atoms: C_2  and  C_3 
REMARK    2  A    between atoms: C_3  and  O_4 
REMARK    3  A    between atoms: C_3  and  C_5 
REMARK    4  A    between atoms: C_5  and  N_6 
REMARK    5  A    between atoms: N_6  and  C_7 
REMARK    6  A    between atoms: C_7  and  C_8 
REMARK    7  A    between atoms: C_8  and  O_9 
REMARK    8  A    between atoms: O_9  and  C_10 
ROOT
HETATM    1  C   UNL     1       2.413   0.902  -0.780  1.00  0.00     0.296 C 
ENDROOT
BRANCH   1   2
HETATM    2  N   UNL     1       2.352   2.386  -0.823  1.00  0.00     0.088 N 
HETATM    3  H   UNL     1       1.429   2.664  -0.487  1.00  0.00     0.316 HD
BRANCH   2   4
HETATM    4  C   UNL     1       3.464   3.000   0.000  1.00  0.00     0.305 C 
BRANCH   4   5
HETATM    5  C   UNL     1       3.464   4.000   0.000  1.00  0.00     0.168 C 
BRANCH   5   6
HETATM    6  C   UNL     1       4.869   4.308   0.776  1.00  0.00    -0.004 C 
HETATM    7  C   UNL     1       6.119   3.983   0.396  1.00  0.00     0.009 C 
ENDBRANCH   5   6
BRANCH   5   8
HETATM    8  O   UNL     1       2.410   4.237   1.121  1.00  0.00    -0.390 OA
HETATM    9  H   UNL     1       1.553   4.255   0.656  1.00  0.00     0.210 HD
ENDBRANCH   5   8
ENDBRANCH   4   5
ENDBRANCH   2   4
ENDBRANCH   1   2
BRANCH   1  10
HETATM   10  C   UNL     1       1.180   0.235  -0.143  1.00  0.00     0.205 C 
BRANCH  10  11
HETATM   11  O   UNL     1       0.635  -0.678  -1.099  1.00  0.00    -0.345 OA
BRANCH  11  12
HETATM   12  C   UNL     1      -0.469  -1.343  -0.588  1.00  0.00     0.119 C 
HETATM   13  C   UNL     1      -1.778  -0.682  -0.464  1.00  0.00     0.226 C 
HETATM   14  C   UNL     1      -2.755  -1.403   0.116  1.00  0.00     0.192 C 
HETATM   15  O   UNL     1      -1.827   0.499  -0.913  1.00  0.00    -0.283 OA
HETATM   16  O   UNL     1      -2.689  -2.694   0.567  1.00  0.00    -0.355 OA
HETATM   17  C   UNL     1      -1.522  -3.434   0.196  1.00  0.00     0.205 C 
HETATM   18  C   UNL     1      -0.359  -2.645  -0.297  1.00  0.00     0.040 C 
ENDBRANCH  11  12
ENDBRANCH  10  11
ENDBRANCH   1  10
TORSDOF 8
