REMARK  4 active torsions:
REMARK  status: ('A' for Active; 'I' for Inactive)
REMARK    1  A    between atoms: S_2  and  C_3 
REMARK    2  A    between atoms: C_3  and  C_5 
REMARK    3  A    between atoms: C_5  and  N_6 
REMARK    4  A    between atoms: C_5  and  C_7 
ROOT
HETATM    1  C   UNL     1       1.281  -0.995  -0.245  1.00  0.00     0.327 C 
ENDROOT
BRANCH   1   2
HETATM    2  C   UNL     1       0.407  -2.166  -0.775  1.00  0.00     0.222 C 
HETATM    3  O   UNL     1       0.429  -2.606  -1.918  1.00  0.00    -0.283 OA
BRANCH   2   4
HETATM    4  S   UNL     1      -0.623  -2.926   0.453  1.00  0.00    -0.094 SA
HETATM    5  C   UNL     1      -2.173  -2.098   0.046  1.00  0.00     0.099 C 
ENDBRANCH   2   4
ENDBRANCH   1   2
BRANCH   1   6
HETATM    6  N   UNL     1       2.512  -0.846  -1.044  1.00  0.00     0.095 N 
HETATM    7  H   UNL     1       2.759  -1.751  -1.447  1.00  0.00     0.314 HD
HETATM    8  H   UNL     1       3.278  -0.571  -0.438  1.00  0.00     0.314 HD
ENDBRANCH   1   6
BRANCH   1   9
HETATM    9  C   UNL     1       0.563   0.322  -0.234  1.00  0.00    -0.043 C 
HETATM   10  C   UNL     1       0.947   1.375   0.764  1.00  0.00     0.037 C 
HETATM   11  C   UNL     1       0.187   2.609   0.279  1.00  0.00     0.008 C 
HETATM   12  C   UNL     1      -0.948   2.090  -0.595  1.00  0.00     0.028 C 
HETATM   13  C   UNL     1      -0.464   0.736  -0.992  1.00  0.00    -0.021 C 
ENDBRANCH   1   9
TORSDOF 4
