REMARK  6 active torsions:
REMARK  status: ('A' for Active; 'I' for Inactive)
REMARK    1  A    between atoms: C_2  and  C_3 
REMARK    2  A    between atoms: C_2  and  O_7 
REMARK    3  A    between atoms: C_3  and  S_4 
REMARK    4  A    between atoms: S_4  and  C_5 
REMARK    5  A    between atoms: O_7  and  C_8 
REMARK    6  A    between atoms: C_8  and  C_9 
ROOT
HETATM    1  C   UNL     1      -2.598   2.500   0.000  1.00  0.00     0.040 C 
HETATM    2  C   UNL     1      -2.598   1.500   0.000  1.00  0.00     0.127 C 
ENDROOT
BRANCH   2   3
HETATM    3  C   UNL     1      -2.858   0.511   1.232  1.00  0.00     0.113 C 
BRANCH   3   4
HETATM    4  S   UNL     1      -3.111  -1.269   0.828  1.00  0.00    -0.099 SA
BRANCH   4   5
HETATM    5  C   UNL     1      -4.812  -1.299   0.441  1.00  0.00     0.304 C 
HETATM    6  O   UNL     1      -5.569  -0.356   0.649  1.00  0.00    -0.295 OA
ENDBRANCH   4   5
ENDBRANCH   3   4
ENDBRANCH   2   3
BRANCH   2   7
HETATM    7  O   UNL     1      -1.963   1.052  -1.212  1.00  0.00    -0.385 OA
BRANCH   7   8
HETATM    8  C   UNL     1      -0.643   1.598  -1.282  1.00  0.00     0.176 C 
BRANCH   8   9
HETATM    9  C   UNL     1       0.000   1.000   0.000  1.00  0.00    -0.030 A 
HETATM   10  C   UNL     1       1.000   1.000   0.000  1.00  0.00     0.016 A 
HETATM   11  C   UNL     1       0.000   0.000   0.000  1.00  0.00     0.016 A 
HETATM   12  C   UNL     1      -0.134   2.116   1.181  1.00  0.00     0.016 C 
ENDBRANCH   8   9
ENDBRANCH   7   8
ENDBRANCH   2   7
TORSDOF 6
