REMARK  4 active torsions:
REMARK  status: ('A' for Active; 'I' for Inactive)
REMARK    1  A    between atoms: C_2  and  C_3 
REMARK    2  A    between atoms: C_5  and  C_6 
REMARK    3  A    between atoms: C_6  and  O_7 
REMARK    4  A    between atoms: O_7  and  C_8 
ROOT
HETATM    1  C   UNL     1      -3.399  -2.341  -0.083  1.00  0.00     0.243 C 
ENDROOT
BRANCH   1   2
HETATM    2  C   UNL     1      -2.131  -1.572  -0.056  1.00  0.00     0.104 A 
HETATM    3  C   UNL     1      -0.895  -1.847   0.482  1.00  0.00     0.066 A 
HETATM    4  C   UNL     1      -0.046  -0.856  -0.061  1.00  0.00     0.064 A 
HETATM    5  N   UNL     1      -0.732   0.008  -0.818  1.00  0.00    -0.133 NA
HETATM    6  O   UNL     1      -2.047  -0.445  -0.813  1.00  0.00    -0.215 OA
BRANCH   4   7
HETATM    7  C   UNL     1       1.430  -0.717   0.081  1.00  0.00     0.057 C 
HETATM    8  C   UNL     1       2.180  -2.006  -0.230  1.00  0.00     0.011 C 
ENDBRANCH   4   7
ENDBRANCH   1   2
BRANCH   1   9
HETATM    9  O   UNL     1      -4.509  -1.512   0.209  1.00  0.00    -0.341 OA
BRANCH   9  10
HETATM   10  C   UNL     1      -5.761  -2.132   0.150  1.00  0.00     0.119 A 
HETATM   11  C   UNL     1      -6.955  -1.279   0.327  1.00  0.00     0.226 A 
HETATM   12  C   UNL     1      -8.160  -1.885   0.293  1.00  0.00     0.192 A 
HETATM   13  O   UNL     1      -6.702  -0.055   0.492  1.00  0.00    -0.283 OA
HETATM   14  O   UNL     1      -8.439  -3.209   0.116  1.00  0.00    -0.355 OA
HETATM   15  C   UNL     1      -7.318  -4.063  -0.117  1.00  0.00     0.205 A 
HETATM   16  C   UNL     1      -5.960  -3.446  -0.058  1.00  0.00     0.040 A 
ENDBRANCH   9  10
ENDBRANCH   1   9
TORSDOF 4
