REMARK  2 active torsions:
REMARK  status: ('A' for Active; 'I' for Inactive)
REMARK    1  A    between atoms: C_2  and  N_3 
REMARK    2  A    between atoms: N_3  and  C_4 
ROOT
HETATM    1  C   UNL     1       0.715  -0.833  -0.392  1.00  0.00     0.119 A 
HETATM    2  C   UNL     1      -0.293  -0.701   0.721  1.00  0.00     0.044 A 
HETATM    3  C   UNL     1      -1.624  -1.368   0.607  1.00  0.00     0.035 C 
HETATM    4  C   UNL     1      -2.426  -0.425  -0.288  1.00  0.00     0.168 C 
HETATM    5  O   UNL     1      -1.462   0.266  -1.106  1.00  0.00    -0.383 OA
HETATM    6  C   UNL     1      -0.226   0.339  -0.352  1.00  0.00     0.150 A 
ENDROOT
BRANCH   1   7
HETATM    7  N   UNL     1       2.109  -0.674  -0.110  1.00  0.00    -0.361 N 
HETATM    8  H   UNL     1       2.499   0.259  -0.067  1.00  0.00     0.162 HD
BRANCH   7   9
HETATM    9  C   UNL     1       2.949  -1.745   0.074  1.00  0.00     0.348 C 
HETATM   10  O   UNL     1       2.638  -2.927   0.022  1.00  0.00    -0.284 OA
ENDBRANCH   7   9
ENDBRANCH   1   7
TORSDOF 2
