REMARK  5 active torsions:
REMARK  status: ('A' for Active; 'I' for Inactive)
REMARK    1  A    between atoms: O_2  and  C_3 
REMARK    2  A    between atoms: C_3  and  C_5 
REMARK    3  A    between atoms: C_5  and  N_6 
REMARK    4  A    between atoms: C_5  and  C_7 
REMARK    5  A    between atoms: C_7  and  S_9 
ROOT
HETATM    1  C   UNL     1       1.658   2.793   0.625  1.00  0.00     0.326 C 
ENDROOT
BRANCH   1   2
HETATM    2  C   UNL     1       2.526   1.720  -0.076  1.00  0.00     0.158 C 
HETATM    3  C   UNL     1       4.000   2.120  -0.161  1.00  0.00     0.042 C 
BRANCH   2   4
HETATM    4  O   UNL     1       2.398   0.525   0.713  1.00  0.00    -0.388 OA
HETATM    5  C   UNL     1       2.589  -0.684  -0.010  1.00  0.00     0.202 C 
ENDBRANCH   2   4
ENDBRANCH   1   2
BRANCH   1   6
HETATM    6  N   UNL     1       1.805   4.172   0.091  1.00  0.00     0.093 N 
HETATM    7  H   UNL     1       2.712   4.538   0.387  1.00  0.00     0.314 HD
HETATM    8  H   UNL     1       1.118   4.768   0.560  1.00  0.00     0.314 HD
ENDBRANCH   1   6
BRANCH   1   9
HETATM    9  C   UNL     1       0.165   2.415   0.670  1.00  0.00     0.221 C 
HETATM   10  O   UNL     1      -0.534   2.653   1.648  1.00  0.00    -0.283 OA
BRANCH   9  11
HETATM   11  S   UNL     1      -0.591   1.785  -0.803  1.00  0.00    -0.095 SA
HETATM   12  C   UNL     1      -0.962   0.128  -0.205  1.00  0.00     0.099 C 
ENDBRANCH   9  11
ENDBRANCH   1   9
TORSDOF 5
