REMARK  6 active torsions:
REMARK  status: ('A' for Active; 'I' for Inactive)
REMARK    1  A    between atoms: S_2  and  C_3 
REMARK    2  A    between atoms: C_3  and  C_4 
REMARK    3  A    between atoms: C_3  and  C_11 
REMARK    4  A    between atoms: C_11  and  O_12 
REMARK    5  A    between atoms: C_11  and  C_13 
REMARK    6  A    between atoms: C_13  and  O_15 
ROOT
HETATM    1  C   UNL     1      -1.581  -1.224  -0.648  1.00  0.00     0.088 C 
ENDROOT
BRANCH   1   2
HETATM    2  S   UNL     1       0.000  -2.000   0.000  1.00  0.00    -0.284 SA
HETATM    3  C   UNL     1       0.000  -3.000   0.000  1.00  0.00     0.250 C 
ENDBRANCH   1   2
BRANCH   1   4
HETATM    4  C   UNL     1      -1.422   0.333  -0.458  1.00  0.00    -0.044 A 
HETATM    5  C   UNL     1      -0.153   0.967  -0.551  1.00  0.00     0.010 A 
HETATM    6  C   UNL     1       0.021   2.337  -0.317  1.00  0.00     0.019 A 
HETATM    7  C   UNL     1      -1.081   3.134  -0.047  1.00  0.00     0.011 A 
HETATM    8  C   UNL     1      -2.351   2.568  -0.021  1.00  0.00     0.019 A 
HETATM    9 BR   UNL     1      -0.858   4.980   0.272  1.00  0.00    -0.051 Br
HETATM   10  C   UNL     1      -2.514   1.188  -0.225  1.00  0.00     0.010 A 
ENDBRANCH   1   4
BRANCH   1  11
HETATM   11  C   UNL     1      -2.866  -1.802   0.010  1.00  0.00     0.231 C 
BRANCH  11  12
HETATM   12  O   UNL     1      -4.063  -1.333  -0.649  1.00  0.00    -0.384 OA
HETATM   13  H   UNL     1      -4.818  -1.652  -0.121  1.00  0.00     0.210 HD
ENDBRANCH  11  12
BRANCH  11  14
HETATM   14  C   UNL     1      -2.977  -3.317  -0.065  1.00  0.00     0.171 C 
HETATM   15  O   UNL     1      -3.369  -4.040   0.839  1.00  0.00    -0.648 OA
BRANCH  14  16
HETATM   16  O   UNL     1      -2.719  -3.834  -1.282  1.00  0.00    -0.774 OA
HETATM   17  H   UNL     1      -2.929  -4.788  -1.196  1.00  0.00     0.167 HD
ENDBRANCH  14  16
ENDBRANCH  11  14
ENDBRANCH   1  11
TORSDOF 6
