REMARK  4 active torsions:
REMARK  status: ('A' for Active; 'I' for Inactive)
REMARK       I    between atoms: C_2  and  N_3 
REMARK    1  A    between atoms: C_2  and  O_13 
REMARK    2  A    between atoms: N_3  and  C_4 
REMARK    3  A    between atoms: C_5  and  C_6 
REMARK    4  A    between atoms: O_13  and  C_14 
ROOT
HETATM    1  O   UNL     1      -0.556  -4.088   0.007  1.00  0.00    -0.238 OA
HETATM    2  C   UNL     1       0.401  -3.323  -0.102  1.00  0.00     0.370 C 
HETATM    3  N   UNL     1       1.699  -3.799  -0.049  1.00  0.00    -0.312 N 
HETATM    4  H   UNL     1       1.721  -4.810   0.056  1.00  0.00     0.170 HD
ENDROOT
BRANCH   3   5
HETATM    5  C   UNL     1       2.920  -3.150  -0.040  1.00  0.00     0.094 C 
HETATM    6  C   UNL     1       3.122  -1.826  -0.119  1.00  0.00     0.028 C 
BRANCH   6   7
HETATM    7  C   UNL     1       4.382  -1.068  -0.066  1.00  0.00    -0.032 A 
HETATM    8  C   UNL     1       5.657  -1.640  -0.049  1.00  0.00     0.053 A 
HETATM    9  C   UNL     1       6.781  -0.818  -0.004  1.00  0.00     0.117 A 
HETATM   10  C   UNL     1       6.672   0.569   0.025  1.00  0.00     0.042 A 
HETATM   11  F   UNL     1       7.999  -1.376   0.013  1.00  0.00    -0.206 F 
HETATM   12  C   UNL     1       5.410   1.153   0.008  1.00  0.00     0.004 A 
HETATM   13  C   UNL     1       4.277   0.340  -0.039  1.00  0.00     0.011 A 
ENDBRANCH   6   7
ENDBRANCH   3   5
BRANCH   2  14
HETATM   14  O   UNL     1       0.313  -1.980  -0.268  1.00  0.00    -0.256 OA
BRANCH  14  15
HETATM   15  C   UNL     1      -0.807  -1.140  -0.115  1.00  0.00     0.148 C 
HETATM   16  C   UNL     1      -0.538   0.315  -0.282  1.00  0.00     0.187 C 
HETATM   17  C   UNL     1      -1.609   1.279   0.129  1.00  0.00     0.112 C 
HETATM   18  O   UNL     1       0.568   0.713  -0.652  1.00  0.00    -0.290 OA
HETATM   19  C   UNL     1      -2.973   0.649  -0.050  1.00  0.00     0.182 C 
HETATM   20  O   UNL     1      -3.091  -0.655   0.523  1.00  0.00    -0.360 OA
HETATM   21  C   UNL     1      -2.033  -1.495   0.292  1.00  0.00     0.175 C 
ENDBRANCH  14  15
ENDBRANCH   2  14
TORSDOF 4
