REMARK  3 active torsions:
REMARK  status: ('A' for Active; 'I' for Inactive)
REMARK    1  A    between atoms: S_2  and  C_3 
REMARK    2  A    between atoms: C_5  and  O_6 
REMARK    3  A    between atoms: C_9  and  N_10 
ROOT
HETATM    1  C   UNL     1      -0.784  -0.598   0.000  1.00  0.00     0.029 A 
HETATM    2  C   UNL     1      -1.967   0.150  -0.000  1.00  0.00     0.057 A 
HETATM    3  C   UNL     1      -1.928   1.543   0.000  1.00  0.00     0.067 A 
HETATM    4  C   UNL     1      -0.723   2.229   0.000  1.00  0.00     0.039 A 
HETATM    5  C   UNL     1       0.466   1.503   0.000  1.00  0.00     0.033 A 
HETATM    6  C   UNL     1       0.454   0.101  -0.000  1.00  0.00     0.042 A 
ENDROOT
BRANCH   6   7
HETATM    7  N   UNL     1       1.673  -0.573   0.000  1.00  0.00    -0.398 N 
HETATM    8  H   UNL     1       1.648  -1.587  -0.000  1.00  0.00     0.156 HD
HETATM    9  H   UNL     1       2.557  -0.090  -0.000  1.00  0.00     0.156 HD
ENDBRANCH   6   7
BRANCH   1  10
HETATM   10  S   UNL     1      -0.710  -2.404  -0.000  1.00  0.00    -0.132 SA
HETATM   11  C   UNL     1      -2.381  -3.000   0.000  1.00  0.00     0.095 C 
ENDBRANCH   1  10
BRANCH   3  12
HETATM   12  O   UNL     1      -3.121   2.206  -0.000  1.00  0.00    -0.361 OA
HETATM   13  H   UNL     1      -2.946   3.162   0.000  1.00  0.00     0.217 HD
ENDBRANCH   3  12
TORSDOF 3
