REMARK  2 active torsions:
REMARK  status: ('A' for Active; 'I' for Inactive)
REMARK    1  A    between atoms: N_4  and  C_5 
REMARK    2  A    between atoms: C_8  and  N_9 
ROOT
HETATM    1  C   UNL     1      -3.529   0.528   0.000  1.00  0.00     0.778 A 
HETATM    2  N   UNL     1      -4.485  -0.415   0.000  1.00  0.00     0.036 NA
HETATM    3  N   UNL     1      -5.588   0.359  -0.000  1.00  0.00    -0.091 N 
HETATM    4  C   UNL     1      -5.265   1.689  -0.000  1.00  0.00     0.730 A 
HETATM    5  N   UNL     1      -3.966   1.824   0.000  1.00  0.00     0.132 NA
HETATM    6  H   UNL     1      -6.504  -0.071  -0.000  1.00  0.00     0.208 HD
ENDROOT
BRANCH   1   7
HETATM    7  N   UNL     1      -2.146   0.190   0.000  1.00  0.00    -0.072 N 
HETATM    8  C   UNL     1      -1.619  -1.084   0.000  1.00  0.00     0.161 A 
HETATM    9  C   UNL     1      -0.253  -0.919   0.000  1.00  0.00     0.066 A 
HETATM   10  C   UNL     1       0.817  -1.890  -0.000  1.00  0.00     0.073 C 
HETATM   11  N   UNL     1       0.021   0.422   0.000  1.00  0.00    -0.163 NA
HETATM   12  N   UNL     1      -1.127   1.088   0.000  1.00  0.00     0.024 NA
ENDBRANCH   1   7
BRANCH   4  13
HETATM   13  N   UNL     1      -6.179   2.661   0.000  1.00  0.00    -0.231 N 
HETATM   14  H   UNL     1      -5.854   3.623  -0.000  1.00  0.00     0.174 HD
HETATM   15  H   UNL     1      -7.183   2.533  -0.000  1.00  0.00     0.174 HD
ENDBRANCH   4  13
TORSDOF 2
