REMARK  4 active torsions:
REMARK  status: ('A' for Active; 'I' for Inactive)
REMARK    1  A    between atoms: C_2  and  C_3 
REMARK    2  A    between atoms: C_7  and  C_8 
REMARK    3  A    between atoms: C_8  and  O_9 
REMARK    4  A    between atoms: O_9  and  C_10 
ROOT
HETATM    1  C   UNL     1       0.360  -0.390  -0.095  1.00  0.00     0.088 A 
HETATM    2  O   UNL     1       0.005  -1.702  -0.139  1.00  0.00    -0.218 OA
HETATM    3  N   UNL     1      -1.375  -1.804  -0.164  1.00  0.00    -0.140 NA
HETATM    4  C   UNL     1      -1.824  -0.548  -0.144  1.00  0.00     0.158 A 
HETATM    5  C   UNL     1      -0.777   0.396  -0.105  1.00  0.00     0.017 A 
ENDROOT
BRANCH   5   6
HETATM    6  C   UNL     1      -0.829   1.878  -0.083  1.00  0.00     0.221 C 
BRANCH   6   7
HETATM    7  O   UNL     1      -2.167   2.380  -0.150  1.00  0.00    -0.324 OA
BRANCH   7   8
HETATM    8  C   UNL     1      -2.214   3.736  -0.145  1.00  0.00     0.398 C 
HETATM    9  O   UNL     1      -1.259   4.493  -0.089  1.00  0.00    -0.276 OA
ENDBRANCH   7   8
ENDBRANCH   6   7
ENDBRANCH   5   6
BRANCH   1  10
HETATM   10  C   UNL     1       1.807  -0.052  -0.068  1.00  0.00     0.063 C 
HETATM   11  C   UNL     1       2.715  -1.205   0.321  1.00  0.00     0.012 C 
ENDBRANCH   1  10
TORSDOF 4
