REMARK  3 active torsions:
REMARK  status: ('A' for Active; 'I' for Inactive)
REMARK    1  A    between atoms: N_4  and  C_5 
REMARK    2  A    between atoms: C_8  and  C_9 
REMARK       I    between atoms: C_9  and  N_11 
REMARK    3  A    between atoms: N_11  and  C_12 
ROOT
HETATM    1  C   UNL     1      -2.028   2.353  -0.481  1.00  0.00     0.146 C 
HETATM    2  C   UNL     1      -2.944   2.218  -1.525  1.00  0.00     0.053 C 
HETATM    3  C   UNL     1      -4.138   2.922  -1.447  1.00  0.00     0.022 C 
HETATM    4  C   UNL     1      -4.381   3.699  -0.315  1.00  0.00     0.050 C 
HETATM    5  C   UNL     1      -3.352   3.939   0.577  1.00  0.00     0.136 C 
HETATM    6  N   UNL     1      -2.165   3.289   0.502  1.00  0.00    -0.241 NA
ENDROOT
BRANCH   4   7
HETATM    7  C   UNL     1      -5.769   4.032   0.042  1.00  0.00     0.257 C 
HETATM    8  O   UNL     1      -6.098   5.208   0.153  1.00  0.00    -0.267 OA
HETATM    9  N   UNL     1      -6.680   2.993   0.143  1.00  0.00    -0.320 N 
HETATM   10  H   UNL     1      -7.652   3.270   0.084  1.00  0.00     0.169 HD
BRANCH   9  11
HETATM   11  C   UNL     1      -6.411   1.641   0.341  1.00  0.00     0.071 A 
HETATM   12  C   UNL     1      -7.299   0.628   0.067  1.00  0.00     0.142 A 
HETATM   13  N   UNL     1      -6.647  -0.540   0.349  1.00  0.00    -0.283 N 
HETATM   14  N   UNL     1      -5.404  -0.358   0.824  1.00  0.00    -0.183 NA
HETATM   15  C   UNL     1      -7.152  -1.885   0.203  1.00  0.00     0.179 C 
HETATM   16  C   UNL     1      -5.279   0.971   0.861  1.00  0.00     0.169 A 
ENDBRANCH   9  11
ENDBRANCH   4   7
BRANCH   1  17
HETATM   17  N   UNL     1      -1.079   1.303  -0.285  1.00  0.00    -0.230 N 
HETATM   18  C   UNL     1      -1.226  -0.013  -0.670  1.00  0.00     0.144 A 
HETATM   19  C   UNL     1      -0.249  -0.687   0.022  1.00  0.00     0.065 A 
HETATM   20  C   UNL     1      -0.033  -2.139   0.157  1.00  0.00     0.073 C 
HETATM   21  N   UNL     1       0.523   0.215   0.696  1.00  0.00    -0.163 NA
HETATM   22  N   UNL     1      -0.005   1.423   0.529  1.00  0.00     0.011 NA
ENDBRANCH   1  17
TORSDOF 3
