REMARK  7 active torsions:
REMARK  status: ('A' for Active; 'I' for Inactive)
REMARK    1  A    between atoms: N_4  and  C_5 
REMARK    2  A    between atoms: C_5  and  C_6 
REMARK    3  A    between atoms: C_6  and  O_7 
REMARK    4  A    between atoms: C_6  and  C_8 
REMARK    5  A    between atoms: C_8  and  N_10 
REMARK       I    between atoms: N_10  and  C_11 
REMARK    6  A    between atoms: C_11  and  O_13 
REMARK    7  A    between atoms: O_13  and  C_14 
ROOT
HETATM    1  C   UNL     1      -3.810  -1.120  -0.414  1.00  0.00     0.113 C 
HETATM    2  C   UNL     1      -4.913  -2.028   0.152  1.00  0.00     0.035 C 
ENDROOT
BRANCH   1   3
HETATM    3  C   UNL     1      -3.597   0.096   0.532  1.00  0.00     0.160 C 
BRANCH   3   4
HETATM    4  C   UNL     1      -2.663   1.171  -0.040  1.00  0.00     0.179 C 
BRANCH   4   5
HETATM    5  N   UNL     1      -1.275   0.871   0.230  1.00  0.00    -0.281 N 
HETATM    6  C   UNL     1      -0.320   0.440  -0.639  1.00  0.00     0.136 A 
HETATM    7  C   UNL     1       0.693   0.003   0.185  1.00  0.00     0.065 A 
HETATM    8  C   UNL     1       1.951  -0.686  -0.155  1.00  0.00     0.073 C 
HETATM    9  N   UNL     1       0.358   0.257   1.489  1.00  0.00    -0.164 NA
HETATM   10  N   UNL     1      -0.847   0.810   1.503  1.00  0.00     0.004 NA
ENDBRANCH   4   5
ENDBRANCH   3   4
BRANCH   3  11
HETATM   11  O   UNL     1      -4.864   0.716   0.813  1.00  0.00    -0.392 OA
HETATM   12  H   UNL     1      -4.789   1.143   1.687  1.00  0.00     0.210 HD
ENDBRANCH   3  11
ENDBRANCH   1   3
BRANCH   1  13
HETATM   13  N   UNL     1      -2.602  -1.914  -0.604  1.00  0.00    -0.330 N 
HETATM   14  C   UNL     1      -2.550  -2.962  -1.483  1.00  0.00     0.361 C 
HETATM   15  O   UNL     1      -3.346  -3.122  -2.396  1.00  0.00    -0.238 OA
HETATM   16  H   UNL     1      -1.793  -1.761  -0.023  1.00  0.00     0.165 HD
BRANCH  14  17
HETATM   17  O   UNL     1      -1.458  -3.746  -1.339  1.00  0.00    -0.294 OA
BRANCH  17  18
HETATM   18  C   UNL     1      -1.040  -4.451  -0.128  1.00  0.00     0.061 C 
HETATM   19  C   UNL     1      -1.582  -5.887  -0.181  1.00  0.00     0.046 C 
HETATM   20  C   UNL     1       0.487  -4.479  -0.238  1.00  0.00     0.046 C 
HETATM   21  C   UNL     1      -1.443  -3.835   1.217  1.00  0.00     0.046 C 
ENDBRANCH  17  18
ENDBRANCH  14  17
ENDBRANCH   1  13
TORSDOF 7
