REMARK  3 active torsions:
REMARK  status: ('A' for Active; 'I' for Inactive)
REMARK    1  A    between atoms: S_2  and  C_3 
REMARK    2  A    between atoms: C_3  and  N_5 
REMARK    3  A    between atoms: N_5  and  C_6 
ROOT
HETATM    1  N   UNL     1       0.520  -2.492  -1.314  1.00  0.00    -0.266 NA
HETATM    2  H   UNL     1      -0.035  -2.295  -2.146  1.00  0.00     0.130 HD
ENDROOT
BRANCH   1   3
HETATM    3  C   UNL     1       1.845  -2.232  -1.522  1.00  0.00     0.084 C 
HETATM    4  S   UNL     1       2.503  -1.868  -2.992  1.00  0.00    -0.062 SA
BRANCH   3   5
HETATM    5  S   UNL     1       2.598  -2.500   0.000  1.00  0.00    -0.244 SA
HETATM    6  C   UNL     1       2.598  -3.500   0.000  1.00  0.00     0.266 C 
ENDBRANCH   3   5
ENDBRANCH   1   3
BRANCH   1   7
HETATM    7  C   UNL     1       0.000  -2.000   0.000  1.00  0.00     0.056 A 
HETATM    8  C   UNL     1      -1.000  -2.000   0.000  1.00  0.00     0.099 A 
HETATM    9  C   UNL     1       0.000  -1.000   0.000  1.00  0.00     0.056 A 
HETATM   10  N   UNL     1       0.000   0.000   0.000  1.00  0.00    -0.158 N 
HETATM   11  C   UNL     1       0.275  -2.930   1.350  1.00  0.00     0.039 C 
ENDBRANCH   1   7
TORSDOF 3
