REMARK  7 active torsions:
REMARK  status: ('A' for Active; 'I' for Inactive)
REMARK    1  A    between atoms: C_2  and  C_3 
REMARK    2  A    between atoms: C_3  and  N_4 
REMARK       I    between atoms: N_4  and  C_5 
REMARK    3  A    between atoms: C_5  and  C_7 
REMARK    4  A    between atoms: C_7  and  O_8 
REMARK    5  A    between atoms: C_7  and  C_16 
REMARK    6  A    between atoms: O_8  and  C_9 
REMARK    7  A    between atoms: C_16  and  O_17 
ROOT
HETATM    1  C   UNL     1       1.459  -2.154  -0.110  1.00  0.00     0.255 C 
ENDROOT
BRANCH   1   2
HETATM    2  C   UNL     1       2.531  -2.417   0.913  1.00  0.00     0.250 C 
HETATM    3  N   UNL     1       3.738  -1.892   0.478  1.00  0.00    -0.359 N 
HETATM    4  H   UNL     1       3.623  -1.036  -0.070  1.00  0.00     0.162 HD
HETATM    5  O   UNL     1       2.387  -3.115   1.912  1.00  0.00    -0.271 OA
BRANCH   3   6
HETATM    6  C   UNL     1       4.875  -2.715   0.154  1.00  0.00     0.122 C 
BRANCH   6   7
HETATM    7  C   UNL     1       4.747  -4.243   0.221  1.00  0.00     0.015 C 
HETATM    8  C   UNL     1       3.493  -4.857  -0.372  1.00  0.00     0.006 C 
ENDBRANCH   6   7
ENDBRANCH   3   6
ENDBRANCH   1   2
BRANCH   1   9
HETATM    9  O   UNL     1       1.362  -0.586   0.048  1.00  0.00    -0.328 OA
BRANCH   9  10
HETATM   10  C   UNL     1       0.249   0.285  -0.155  1.00  0.00     0.141 C 
HETATM   11  C   UNL     1       0.182   1.502   0.692  1.00  0.00     0.205 C 
HETATM   12  C   UNL     1      -0.989   2.187   0.688  1.00  0.00     0.057 C 
HETATM   13  O   UNL     1       1.244   1.772   1.297  1.00  0.00    -0.286 OA
HETATM   14  C   UNL     1      -2.178   1.735  -0.078  1.00  0.00     0.206 C 
HETATM   15  O   UNL     1      -1.871   0.879  -1.193  1.00  0.00    -0.356 OA
HETATM   16  C   UNL     1      -0.711   0.142  -1.080  1.00  0.00     0.176 C 
ENDBRANCH   9  10
ENDBRANCH   1   9
BRANCH   1  17
HETATM   17  C   UNL     1       0.000  -3.000   0.000  1.00  0.00     0.211 A 
HETATM   18  C   UNL     1       0.000  -4.000   0.000  1.00  0.00     0.225 A 
HETATM   19  O   UNL     1       0.767  -4.783  -0.565  1.00  0.00    -0.271 OA
HETATM   20  O   UNL     1      -0.842  -4.579   0.822  1.00  0.00    -0.318 OA
HETATM   21  C   UNL     1      -1.732  -4.000   0.000  1.00  0.00     0.249 A 
HETATM   22  C   UNL     1      -1.732  -3.000   0.000  1.00  0.00     0.085 A 
BRANCH  17  23
HETATM   23  O   UNL     1      -0.100  -3.025  -1.754  1.00  0.00    -0.386 OA
HETATM   24  H   UNL     1      -0.868  -2.484  -1.997  1.00  0.00     0.210 HD
ENDBRANCH  17  23
ENDBRANCH   1  17
TORSDOF 7
