REMARK  2 active torsions:
REMARK  status: ('A' for Active; 'I' for Inactive)
REMARK    1  A    between atoms: N_4  and  C_5 
REMARK    2  A    between atoms: C_10  and  N_11 
ROOT
HETATM    1  C   UNL     1      -2.873  -2.155  -0.693  1.00  0.00     0.181 C 
HETATM    2  C   UNL     1      -2.990  -3.478   0.117  1.00  0.00     0.041 C 
HETATM    3  C   UNL     1      -4.262  -4.269  -0.206  1.00  0.00     0.063 C 
HETATM    4  C   UNL     1      -5.434  -3.377  -0.055  1.00  0.00     0.058 A 
HETATM    5  N   UNL     1      -6.669  -3.852   0.315  1.00  0.00    -0.228 NA
HETATM    6  C   UNL     1      -7.521  -2.855   0.372  1.00  0.00     0.165 A 
HETATM    7  S   UNL     1      -6.882  -1.310  -0.044  1.00  0.00    -0.047 SA
HETATM    8  C   UNL     1      -5.361  -2.024  -0.283  1.00  0.00     0.081 A 
HETATM    9  C   UNL     1      -4.177  -1.307  -0.705  1.00  0.00     0.192 C 
HETATM   10  O   UNL     1      -4.235  -0.175  -1.169  1.00  0.00    -0.289 OA
ENDROOT
BRANCH   1  11
HETATM   11  N   UNL     1      -1.675  -1.409  -0.298  1.00  0.00    -0.271 N 
HETATM   12  C   UNL     1      -0.411  -1.918  -0.131  1.00  0.00     0.137 A 
HETATM   13  C   UNL     1       0.404  -0.809  -0.126  1.00  0.00     0.065 A 
HETATM   14  C   UNL     1       1.876  -0.727  -0.136  1.00  0.00     0.073 C 
HETATM   15  N   UNL     1      -0.373   0.312  -0.176  1.00  0.00    -0.164 NA
HETATM   16  N   UNL     1      -1.639  -0.068  -0.254  1.00  0.00     0.005 NA
ENDBRANCH   1  11
BRANCH   6  17
HETATM   17  N   UNL     1      -8.809  -3.009   0.710  1.00  0.00    -0.378 N 
HETATM   18  H   UNL     1      -9.467  -2.296   0.419  1.00  0.00     0.158 HD
HETATM   19  H   UNL     1      -9.170  -3.954   0.670  1.00  0.00     0.158 HD
ENDBRANCH   6  17
TORSDOF 2
