REMARK  7 active torsions:
REMARK  status: ('A' for Active; 'I' for Inactive)
REMARK    1  A    between atoms: C_7  and  O_8 
REMARK    2  A    between atoms: O_8  and  C_9 
REMARK    3  A    between atoms: C_9  and  C_10 
REMARK    4  A    between atoms: C_9  and  C_12 
REMARK    5  A    between atoms: C_10  and  O_11 
REMARK    6  A    between atoms: C_12  and  N_13 
REMARK    7  A    between atoms: C_15  and  C_16 
ROOT
HETATM    1  C   UNL     1       2.154   0.348  -0.045  1.00  0.00     0.172 C 
ENDROOT
BRANCH   1   2
HETATM    2  O   UNL     1       3.294   0.847  -0.747  1.00  0.00    -0.336 OA
BRANCH   2   3
HETATM    3  C   UNL     1       4.552   0.692  -0.204  1.00  0.00     0.141 C 
HETATM    4  C   UNL     1       5.495   1.803  -0.416  1.00  0.00     0.205 C 
HETATM    5  O   UNL     1       4.961   2.898  -0.730  1.00  0.00    -0.286 OA
HETATM    6  C   UNL     1       6.794   1.502  -0.228  1.00  0.00     0.057 C 
HETATM    7  C   UNL     1       7.252   0.140   0.195  1.00  0.00     0.206 C 
HETATM    8  O   UNL     1       6.261  -0.665   0.857  1.00  0.00    -0.356 OA
HETATM    9  C   UNL     1       4.973  -0.411   0.446  1.00  0.00     0.175 C 
ENDBRANCH   2   3
ENDBRANCH   1   2
BRANCH   1  10
HETATM   10  C   UNL     1       1.487  -0.732  -0.924  1.00  0.00     0.198 C 
BRANCH  10  11
HETATM   11  O   UNL     1       2.321  -1.865  -1.178  1.00  0.00    -0.398 OA
HETATM   12  H   UNL     1       2.758  -2.098  -0.344  1.00  0.00     0.209 HD
ENDBRANCH  10  11
ENDBRANCH   1  10
BRANCH   1  13
HETATM   13  C   UNL     1       1.240   1.569   0.169  1.00  0.00     0.180 C 
BRANCH  13  14
HETATM   14  N   UNL     1      -0.113   1.252   0.576  1.00  0.00    -0.280 N 
HETATM   15  N   UNL     1      -0.354   0.268   1.457  1.00  0.00     0.005 NA
HETATM   16  N   UNL     1      -1.650  -0.005   1.403  1.00  0.00    -0.157 NA
HETATM   17  C   UNL     1      -2.242   0.906   0.569  1.00  0.00     0.108 C 
HETATM   18  C   UNL     1      -1.281   1.750   0.061  1.00  0.00     0.142 C 
BRANCH  17  19
HETATM   19  C   UNL     1      -3.701   0.916   0.271  1.00  0.00     0.038 A 
HETATM   20  S   UNL     1      -4.724  -0.416   0.615  1.00  0.00    -0.076 SA
HETATM   21  C   UNL     1      -6.073   0.399   0.007  1.00  0.00     0.075 A 
HETATM   22  C   UNL     1      -5.796   1.671  -0.422  1.00  0.00     0.033 A 
HETATM   23 CL   UNL     1      -7.605  -0.378  -0.007  1.00  0.00    -0.076 Cl
HETATM   24  C   UNL     1      -4.401   1.965  -0.295  1.00  0.00     0.023 A 
ENDBRANCH  17  19
ENDBRANCH  13  14
ENDBRANCH   1  13
TORSDOF 7
