REMARK  3 active torsions:
REMARK  status: ('A' for Active; 'I' for Inactive)
REMARK    1  A    between atoms: S_2  and  C_3 
REMARK    2  A    between atoms: C_3  and  C_4 
REMARK    3  A    between atoms: C_4  and  N_5 
ROOT
HETATM    1  N   UNL     1      -0.029  -0.005   1.087  1.00  0.00    -0.282 N 
HETATM    2  C   UNL     1       1.298  -0.313   1.107  1.00  0.00     0.136 A 
HETATM    3  C   UNL     1       1.344  -1.591   0.594  1.00  0.00     0.065 A 
HETATM    4  C   UNL     1       2.510  -2.445   0.304  1.00  0.00     0.073 C 
HETATM    5  N   UNL     1       0.067  -2.015   0.336  1.00  0.00    -0.164 NA
HETATM    6  N   UNL     1      -0.768  -1.032   0.644  1.00  0.00     0.004 NA
ENDROOT
BRANCH   1   7
HETATM    7  C   UNL     1      -0.633   1.288   1.334  1.00  0.00     0.156 C 
BRANCH   7   8
HETATM    8  C   UNL     1      -0.991   1.966   0.016  1.00  0.00     0.095 C 
BRANCH   8   9
HETATM    9  S   UNL     1      -1.014   3.785   0.168  1.00  0.00    -0.172 SA
HETATM   10  C   UNL     1       0.754   4.104  -0.076  1.00  0.00     0.089 C 
ENDBRANCH   8   9
ENDBRANCH   7   8
ENDBRANCH   1   7
TORSDOF 3
