REMARK  1 active torsions:
REMARK  status: ('A' for Active; 'I' for Inactive)
REMARK    1  A    between atoms: S_2  and  C_3 
REMARK       I    between atoms: C_3  and  N_5 
ROOT
HETATM    1  C   UNL     1       0.667   1.744   0.066  1.00  0.00     0.290 C 
HETATM    2  O   UNL     1      -0.111   2.490  -0.509  1.00  0.00    -0.260 OA
HETATM    3  N   UNL     1       0.651   0.374  -0.014  1.00  0.00    -0.252 N 
HETATM    4  C   UNL     1       1.744  -0.532   0.196  1.00  0.00     0.165 C 
HETATM    5  C   UNL     1       1.113  -1.873  -0.044  1.00  0.00     0.201 C 
HETATM    6  O   UNL     1      -0.267  -1.668   0.248  1.00  0.00    -0.302 OA
HETATM    7  C   UNL     1      -0.530  -0.323   0.146  1.00  0.00     0.370 C 
HETATM    8  O   UNL     1      -1.665   0.118   0.229  1.00  0.00    -0.238 OA
ENDROOT
BRANCH   1   9
HETATM    9  S   UNL     1       1.998   2.445   0.988  1.00  0.00    -0.073 SA
HETATM   10  C   UNL     1       3.309   2.363  -0.244  1.00  0.00     0.100 C 
ENDBRANCH   1   9
TORSDOF 1
