REMARK  6 active torsions:
REMARK  status: ('A' for Active; 'I' for Inactive)
REMARK    1  A    between atoms: C_2  and  C_3 
REMARK    2  A    between atoms: C_3  and  O_4 
REMARK    3  A    between atoms: C_3  and  C_5 
REMARK    4  A    between atoms: C_5  and  C_6 
REMARK    5  A    between atoms: C_6  and  N_7 
REMARK    6  A    between atoms: N_7  and  C_8 
ROOT
HETATM    1  C   UNL     1       2.602   0.144   0.078  1.00  0.00     0.051 C 
ENDROOT
BRANCH   1   2
HETATM    2  C   UNL     1       3.936   0.787   0.476  1.00  0.00     0.119 C 
BRANCH   2   3
HETATM    3  C   UNL     1       5.196   0.000   0.000  1.00  0.00     0.027 C 
HETATM    4  C   UNL     1       5.196  -1.000   0.000  1.00  0.00     0.007 C 
ENDBRANCH   2   3
BRANCH   2   5
HETATM    5  O   UNL     1       4.003   2.114  -0.061  1.00  0.00    -0.396 OA
HETATM    6  H   UNL     1       4.880   2.479   0.153  1.00  0.00     0.210 HD
ENDBRANCH   2   5
ENDBRANCH   1   2
BRANCH   1   7
HETATM    7  C   UNL     1       1.445   1.134   0.090  1.00  0.00     0.124 C 
BRANCH   7   8
HETATM    8  N   UNL     1       0.169   0.456   0.082  1.00  0.00    -0.368 N 
HETATM    9  H   UNL     1       0.091  -0.496  -0.256  1.00  0.00     0.161 HD
BRANCH   8  10
HETATM   10  C   UNL     1      -1.013   1.126   0.192  1.00  0.00     0.348 C 
HETATM   11  O   UNL     1      -2.098   0.582   0.031  1.00  0.00    -0.284 OA
ENDBRANCH   8  10
ENDBRANCH   7   8
ENDBRANCH   1   7
TORSDOF 6
