REMARK  2 active torsions:
REMARK  status: ('A' for Active; 'I' for Inactive)
REMARK    1  A    between atoms: S_2  and  C_3 
REMARK    2  A    between atoms: C_3  and  C_5 
ROOT
HETATM    1  C   UNL     1       0.128  -0.990  -1.206  1.00  0.00     0.033 C 
HETATM    2  C   UNL     1       0.000   0.000   0.000  1.00  0.00     0.027 C 
HETATM    3  C   UNL     1      -1.000   0.000   0.000  1.00  0.00    -0.041 C 
HETATM    4  C   UNL     1      -2.000   0.000   0.000  1.00  0.00     0.015 C 
HETATM    5  C   UNL     1      -1.015  -0.189  -1.821  1.00  0.00     0.027 C 
HETATM    6  C   UNL     1      -0.812  -1.697  -0.241  1.00  0.00     0.027 C 
ENDROOT
BRANCH   1   7
HETATM    7  C   UNL     1       1.425  -1.444  -1.800  1.00  0.00     0.194 C 
HETATM    8  O   UNL     1       2.327  -0.719  -2.208  1.00  0.00    -0.285 OA
BRANCH   7   9
HETATM    9  S   UNL     1       1.609  -3.196  -1.822  1.00  0.00    -0.096 SA
HETATM   10  C   UNL     1       2.976  -3.315  -0.648  1.00  0.00     0.098 C 
ENDBRANCH   7   9
ENDBRANCH   1   7
TORSDOF 2
