REMARK  4 active torsions:
REMARK  status: ('A' for Active; 'I' for Inactive)
REMARK    1  A    between atoms: N_4  and  C_5 
REMARK    2  A    between atoms: C_5  and  C_6 
REMARK    3  A    between atoms: C_6  and  O_7 
REMARK    4  A    between atoms: C_6  and  C_8 
ROOT
HETATM    1  C   UNL     1       1.350  -4.373   0.394  1.00  0.00     0.189 C 
ENDROOT
BRANCH   1   2
HETATM    2  C   UNL     1       0.490  -3.557  -0.574  1.00  0.00     0.184 C 
BRANCH   2   3
HETATM    3  N   UNL     1       0.430  -2.161  -0.212  1.00  0.00    -0.280 N 
HETATM    4  C   UNL     1       1.128  -1.124  -0.760  1.00  0.00     0.136 A 
HETATM    5  C   UNL     1       0.905  -0.084   0.116  1.00  0.00     0.065 A 
HETATM    6  C   UNL     1       1.473   1.277   0.134  1.00  0.00     0.073 C 
HETATM    7  N   UNL     1       0.051  -0.501   1.103  1.00  0.00    -0.164 NA
HETATM    8  N   UNL     1      -0.239  -1.776   0.888  1.00  0.00     0.004 NA
ENDBRANCH   2   3
ENDBRANCH   1   2
BRANCH   1   9
HETATM    9  O   UNL     1       1.234  -5.763   0.031  1.00  0.00    -0.388 OA
HETATM   10  H   UNL     1       2.115  -6.009  -0.322  1.00  0.00     0.210 HD
ENDBRANCH   1   9
BRANCH   1  11
HETATM   11  C   UNL     1       2.813  -3.968   0.329  1.00  0.00     0.064 A 
HETATM   12  N   UNL     1       3.583  -4.634  -0.575  1.00  0.00    -0.263 NA
HETATM   13  C   UNL     1       4.879  -4.261  -0.675  1.00  0.00     0.117 A 
HETATM   14  C   UNL     1       5.449  -3.245   0.074  1.00  0.00     0.019 A 
HETATM   15  C   UNL     1       4.649  -2.576   0.992  1.00  0.00     0.003 A 
HETATM   16  C   UNL     1       3.315  -2.946   1.133  1.00  0.00     0.030 A 
ENDBRANCH   1  11
TORSDOF 4
