REMARK  1 active torsions:
REMARK  status: ('A' for Active; 'I' for Inactive)
REMARK    1  A    between atoms: N_3  and  C_4 
ROOT
HETATM    1  C   UNL     1       1.707  -0.707   0.000  1.00  0.00     0.038 C 
HETATM    2  C   UNL     1       1.000   0.000   0.000  1.00  0.00     0.156 C 
HETATM    3  N   UNL     1      -0.057   0.115  -1.036  1.00  0.00    -0.343 N 
HETATM    4  C   UNL     1      -0.077   1.575  -1.003  1.00  0.00     0.207 C 
HETATM    5  C   UNL     1       1.338   1.492  -0.392  1.00  0.00     0.279 C 
HETATM    6  F   UNL     1       1.582   2.322   0.652  1.00  0.00    -0.202 F 
HETATM    7  F   UNL     1       2.361   1.671  -1.268  1.00  0.00    -0.202 F 
ENDROOT
BRANCH   3   8
HETATM    8  C   UNL     1      -1.154  -0.684  -1.232  1.00  0.00     0.351 C 
HETATM    9  O   UNL     1      -2.204  -0.326  -1.745  1.00  0.00    -0.284 OA
ENDBRANCH   3   8
TORSDOF 1
