REMARK  3 active torsions:
REMARK  status: ('A' for Active; 'I' for Inactive)
REMARK    1  A    between atoms: N_2  and  N_3 
REMARK    2  A    between atoms: C_4  and  N_6 
REMARK    3  A    between atoms: N_6  and  C_7 
ROOT
HETATM    1  N   UNL     1       2.400   1.842   0.147  1.00  0.00    -0.167 NA
HETATM    2  C   UNL     1       1.160   1.515  -0.097  1.00  0.00     0.121 C 
HETATM    3  C   UNL     1       0.096   2.549   0.186  1.00  0.00     0.093 C 
ENDROOT
BRANCH   2   4
HETATM    4  N   UNL     1       0.748   0.296  -0.596  1.00  0.00    -0.321 N 
HETATM    5  H   UNL     1       1.485  -0.317  -0.898  1.00  0.00     0.169 HD
BRANCH   4   6
HETATM    6  C   UNL     1      -0.529  -0.216  -0.690  1.00  0.00     0.354 C 
HETATM    7  O   UNL     1      -1.575   0.296  -0.321  1.00  0.00    -0.283 OA
ENDBRANCH   4   6
ENDBRANCH   2   4
BRANCH   1   8
HETATM    8  N   UNL     1       3.464   1.000   0.000  1.00  0.00    -0.317 N 
HETATM    9  C   UNL     1       3.464   0.000   0.000  1.00  0.00     0.170 C 
HETATM   10  H   UNL     1       4.305   1.540   0.222  1.00  0.00     0.181 HD
ENDBRANCH   1   8
TORSDOF 3
