REMARK  1 active torsions:
REMARK  status: ('A' for Active; 'I' for Inactive)
REMARK    1  A    between atoms: N_4  and  C_5 
ROOT
HETATM    1  C   UNL     1      -2.195  -1.562   0.325  1.00  0.00     0.233 C 
HETATM    2  C   UNL     1      -2.005  -2.924   0.947  1.00  0.00     0.268 C 
HETATM    3  O   UNL     1      -1.610  -3.141   2.094  1.00  0.00    -0.269 OA
HETATM    4  N   UNL     1      -2.198  -3.903  -0.028  1.00  0.00    -0.241 N 
HETATM    5  C   UNL     1      -1.254  -5.005  -0.048  1.00  0.00     0.183 C 
HETATM    6  N   UNL     1      -3.468  -4.236  -0.397  1.00  0.00    -0.182 NA
HETATM    7  C   UNL     1      -4.492  -3.442  -0.302  1.00  0.00     0.151 C 
HETATM    8  C   UNL     1      -4.664  -2.010   0.073  1.00  0.00    -0.008 A 
HETATM    9  C   UNL     1      -5.996  -1.563  -0.021  1.00  0.00     0.013 A 
HETATM   10  C   UNL     1      -6.319  -0.223   0.171  1.00  0.00     0.001 A 
HETATM   11  C   UNL     1      -5.317   0.679   0.496  1.00  0.00     0.001 A 
HETATM   12  C   UNL     1      -3.996   0.244   0.631  1.00  0.00     0.011 A 
HETATM   13  C   UNL     1      -3.637  -1.101   0.403  1.00  0.00    -0.013 A 
ENDROOT
BRANCH   1  14
HETATM   14  N   UNL     1      -1.089  -0.646   0.694  1.00  0.00    -0.265 N 
HETATM   15  C   UNL     1       0.204  -1.069   0.965  1.00  0.00     0.137 C 
HETATM   16  C   UNL     1       0.991  -0.240   0.201  1.00  0.00     0.065 C 
HETATM   17  C   UNL     1       2.386  -0.432  -0.233  1.00  0.00     0.073 C 
HETATM   18  N   UNL     1       0.234   0.799  -0.251  1.00  0.00    -0.164 NA
HETATM   19  N   UNL     1      -1.024   0.570   0.093  1.00  0.00     0.005 NA
ENDBRANCH   1  14
TORSDOF 1
