REMARK  1 active torsions:
REMARK  status: ('A' for Active; 'I' for Inactive)
REMARK    1  A    between atoms: N_4  and  C_5 
ROOT
HETATM    1  C   UNL     1      -3.001  -1.979  -0.112  1.00  0.00     0.090 A 
HETATM    2  C   UNL     1      -3.086  -3.384  -0.056  1.00  0.00     0.034 A 
HETATM    3  C   UNL     1      -4.331  -4.028   0.056  1.00  0.00     0.005 A 
HETATM    4  C   UNL     1      -5.510  -3.287   0.109  1.00  0.00     0.040 A 
HETATM    5  C   UNL     1      -5.406  -1.913   0.040  1.00  0.00     0.114 A 
HETATM    6  C   UNL     1      -4.192  -1.264  -0.072  1.00  0.00     0.140 A 
HETATM    7  O   UNL     1      -4.361   0.086  -0.111  1.00  0.00    -0.253 OA
HETATM    8  C   UNL     1      -5.780   0.194   0.004  1.00  0.00     0.498 A 
HETATM    9  F   UNL     1      -6.075   0.919   1.111  1.00  0.00    -0.147 F 
HETATM   10  F   UNL     1      -6.257   0.870  -1.070  1.00  0.00    -0.147 F 
HETATM   11  O   UNL     1      -6.467  -1.060   0.088  1.00  0.00    -0.256 OA
ENDROOT
BRANCH   1  12
HETATM   12  N   UNL     1      -1.742  -1.330  -0.149  1.00  0.00    -0.245 N 
HETATM   13  C   UNL     1      -0.487  -1.900  -0.112  1.00  0.00     0.142 A 
HETATM   14  C   UNL     1       0.378  -0.843   0.057  1.00  0.00     0.065 A 
HETATM   15  C   UNL     1       1.833  -0.850   0.301  1.00  0.00     0.073 C 
HETATM   16  N   UNL     1      -0.328   0.321   0.001  1.00  0.00    -0.163 NA
HETATM   17  N   UNL     1      -1.610   0.017  -0.150  1.00  0.00     0.009 NA
ENDBRANCH   1  12
TORSDOF 1
