REMARK  2 active torsions:
REMARK  status: ('A' for Active; 'I' for Inactive)
REMARK    1  A    between atoms: S_2  and  C_3 
REMARK       I    between atoms: C_3  and  N_5 
REMARK    2  A    between atoms: N_5  and  C_6 
ROOT
HETATM    1  C   UNL     1      -0.185  -1.234  -0.320  1.00  0.00     0.212 A 
HETATM    2  C   UNL     1      -1.041  -2.482  -0.045  1.00  0.00     0.090 A 
HETATM    3  C   UNL     1      -2.384  -1.870   0.016  1.00  0.00    -0.021 A 
HETATM    4  C   UNL     1      -3.610  -2.463   0.252  1.00  0.00     0.010 A 
HETATM    5  C   UNL     1      -4.747  -1.647   0.244  1.00  0.00     0.001 A 
HETATM    6  C   UNL     1      -4.641  -0.268   0.001  1.00  0.00     0.003 A 
HETATM    7  C   UNL     1      -3.395   0.313  -0.235  1.00  0.00     0.037 A 
HETATM    8  C   UNL     1      -2.290  -0.510  -0.220  1.00  0.00     0.077 A 
HETATM    9  O   UNL     1      -1.020  -0.068  -0.432  1.00  0.00    -0.330 OA
ENDROOT
BRANCH   1  10
HETATM   10  N   UNL     1       0.835  -1.038   0.694  1.00  0.00    -0.228 NA
HETATM   11  C   UNL     1       1.496   0.162   0.644  1.00  0.00     0.230 C 
HETATM   12  O   UNL     1       1.019   1.242   0.958  1.00  0.00    -0.270 OA
HETATM   13  H   UNL     1       1.470  -1.817   0.716  1.00  0.00     0.133 HD
BRANCH  11  14
HETATM   14  S   UNL     1       3.088   0.057   0.000  1.00  0.00    -0.218 SA
HETATM   15  C   UNL     1       3.588  -0.809   0.000  1.00  0.00     0.274 C 
ENDBRANCH  11  14
ENDBRANCH   1  10
TORSDOF 2
