REMARK  5 active torsions:
REMARK  status: ('A' for Active; 'I' for Inactive)
REMARK    1  A    between atoms: O_2  and  C_3 
REMARK    2  A    between atoms: C_3  and  O_4 
REMARK    3  A    between atoms: C_3  and  C_5 
REMARK    4  A    between atoms: C_5  and  O_8 
REMARK    5  A    between atoms: O_8  and  C_9 
ROOT
HETATM    1  C   UNL     1      -1.732  -2.000   0.000  1.00  0.00     0.110 C 
HETATM    2  C   UNL     1      -1.046  -1.368  -1.295  1.00  0.00     0.051 C 
HETATM    3  C   UNL     1      -2.732  -2.000   0.000  1.00  0.00     0.051 C 
ENDROOT
BRANCH   1   4
HETATM    4  C   UNL     1      -1.139  -3.495   0.169  1.00  0.00     0.290 C 
BRANCH   4   5
HETATM    5  O   UNL     1      -2.038  -4.502   0.697  1.00  0.00    -0.363 OA
HETATM    6  C   UNL     1      -3.093  -4.898  -0.166  1.00  0.00     0.204 C 
ENDBRANCH   4   5
BRANCH   4   7
HETATM    7  O   UNL     1      -0.518  -4.001  -1.018  1.00  0.00    -0.368 OA
HETATM    8  H   UNL     1       0.411  -3.713  -0.907  1.00  0.00     0.212 HD
ENDBRANCH   4   7
ENDBRANCH   1   4
BRANCH   1   9
HETATM    9  O   UNL     1      -1.273  -1.361   1.255  1.00  0.00    -0.332 OA
BRANCH   9  10
HETATM   10  C   UNL     1      -0.594  -0.160   1.155  1.00  0.00     0.120 C 
HETATM   11  C   UNL     1       0.855  -0.129   0.905  1.00  0.00     0.226 C 
HETATM   12  C   UNL     1       1.375   1.074   0.592  1.00  0.00     0.192 C 
HETATM   13  O   UNL     1       1.430  -1.252   0.981  1.00  0.00    -0.283 OA
HETATM   14  O   UNL     1       0.723   2.278   0.541  1.00  0.00    -0.355 OA
HETATM   15  C   UNL     1      -0.611   2.306   1.057  1.00  0.00     0.205 C 
HETATM   16  C   UNL     1      -1.268   0.990   1.282  1.00  0.00     0.040 C 
ENDBRANCH   9  10
ENDBRANCH   1   9
TORSDOF 5
