REMARK  10 active torsions:
REMARK  status: ('A' for Active; 'I' for Inactive)
REMARK    1  A    between atoms: C_2  and  C_3 
REMARK    2  A    between atoms: C_2  and  C_6 
REMARK    3  A    between atoms: C_3  and  C_4 
REMARK    4  A    between atoms: C_4  and  O_5 
REMARK    5  A    between atoms: C_6  and  C_7 
REMARK    6  A    between atoms: C_7  and  C_8 
REMARK    7  A    between atoms: C_8  and  O_9 
REMARK    8  A    between atoms: C_8  and  C_17 
REMARK    9  A    between atoms: O_9  and  C_10 
REMARK   10  A    between atoms: C_17  and  O_20 
ROOT
HETATM    1  C   UNL     1      -1.437  -1.721  -1.077  1.00  0.00     0.162 C 
ENDROOT
BRANCH   1   2
HETATM    2  C   UNL     1      -0.294  -2.838  -0.834  1.00  0.00     0.036 C 
BRANCH   2   3
HETATM    3  C   UNL     1      -0.063  -3.575   0.526  1.00  0.00     0.007 C 
BRANCH   3   4
HETATM    4  C   UNL     1      -0.017  -5.143   0.527  1.00  0.00    -0.017 C 
HETATM    5  C   UNL     1      -1.329  -5.874   0.174  1.00  0.00     0.010 C 
BRANCH   4   6
HETATM    6  C   UNL     1       1.094  -5.776  -0.331  1.00  0.00     0.030 C 
BRANCH   6   7
HETATM    7  C   UNL     1       2.473  -5.159  -0.162  1.00  0.00     0.164 C 
BRANCH   7   8
HETATM    8  O   UNL     1       2.698  -4.164  -1.152  1.00  0.00    -0.401 OA
HETATM    9  H   UNL     1       2.461  -3.296  -0.766  1.00  0.00     0.209 HD
ENDBRANCH   7   8
ENDBRANCH   6   7
ENDBRANCH   4   6
ENDBRANCH   3   4
ENDBRANCH   2   3
ENDBRANCH   1   2
BRANCH   1  10
HETATM   10  O   UNL     1      -0.799  -0.542  -1.615  1.00  0.00    -0.339 OA
BRANCH  10  11
HETATM   11  C   UNL     1      -0.694   0.573  -0.808  1.00  0.00     0.119 C 
HETATM   12  C   UNL     1       0.486   0.794   0.043  1.00  0.00     0.226 C 
HETATM   13  C   UNL     1       0.658   2.061   0.499  1.00  0.00     0.192 C 
HETATM   14  O   UNL     1       1.194  -0.218   0.248  1.00  0.00    -0.283 OA
HETATM   15  O   UNL     1      -0.186   3.124   0.325  1.00  0.00    -0.355 OA
HETATM   16  C   UNL     1      -1.497   2.799  -0.139  1.00  0.00     0.205 C 
HETATM   17  C   UNL     1      -1.619   1.533  -0.912  1.00  0.00     0.040 C 
ENDBRANCH  10  11
ENDBRANCH   1  10
BRANCH   1  18
HETATM   18  C   UNL     1      -2.598  -1.500   0.000  1.00  0.00     0.077 C 
HETATM   19  C   UNL     1      -3.598  -1.500   0.000  1.00  0.00     0.048 C 
HETATM   20  C   UNL     1      -2.884  -3.151   0.286  1.00  0.00     0.048 C 
BRANCH  18  21
HETATM   21  O   UNL     1      -1.985  -1.121   1.266  1.00  0.00    -0.388 OA
HETATM   22  H   UNL     1      -1.062  -0.823   1.081  1.00  0.00     0.210 HD
ENDBRANCH  18  21
ENDBRANCH   1  18
TORSDOF 10
