REMARK  1 active torsions:
REMARK  status: ('A' for Active; 'I' for Inactive)
REMARK    1  A    between atoms: C_2  and  N_3 
ROOT
HETATM    1  N   UNL     1       0.928   0.804   0.079  1.00  0.00    -0.320 N 
HETATM    2  C   UNL     1       2.008  -0.036  -0.057  1.00  0.00     0.205 C 
HETATM    3  N   UNL     1       1.956  -1.319  -0.074  1.00  0.00    -0.284 NA
HETATM    4  C   UNL     1       0.668  -1.992   0.079  1.00  0.00     0.152 C 
HETATM    5  C   UNL     1      -0.494  -1.123  -0.367  1.00  0.00     0.042 C 
HETATM    6  C   UNL     1      -0.380   0.228   0.307  1.00  0.00     0.133 C 
ENDROOT
BRANCH   1   7
HETATM    7  C   UNL     1       1.104   2.170   0.126  1.00  0.00     0.356 C 
HETATM    8  O   UNL     1       2.157   2.778  -0.023  1.00  0.00    -0.283 OA
ENDBRANCH   1   7
TORSDOF 1
