REMARK  4 active torsions:
REMARK  status: ('A' for Active; 'I' for Inactive)
REMARK    1  A    between atoms: C_6  and  N_7 
REMARK    2  A    between atoms: N_7  and  C_8 
REMARK    3  A    between atoms: C_8  and  O_10 
REMARK    4  A    between atoms: O_10  and  C_11 
ROOT
HETATM    1  C   UNL     1      -4.100  -0.185  -0.445  1.00  0.00     0.220 C 
HETATM    2  S   UNL     1      -5.162   0.721  -1.368  1.00  0.00    -0.033 SA
ENDROOT
BRANCH   1   3
HETATM    3  N   UNL     1      -2.784   0.217  -0.374  1.00  0.00    -0.327 N 
HETATM    4  H   UNL     1      -2.645   1.143  -0.755  1.00  0.00     0.169 HD
BRANCH   3   5
HETATM    5  C   UNL     1      -1.632  -0.499   0.010  1.00  0.00     0.035 A 
HETATM    6  C   UNL     1      -1.617  -1.858   0.322  1.00  0.00     0.029 A 
HETATM    7  C   UNL     1      -0.413  -2.511   0.600  1.00  0.00     0.003 A 
HETATM    8  C   UNL     1       0.791  -1.811   0.572  1.00  0.00     0.007 A 
HETATM    9  C   UNL     1       0.800  -0.448   0.267  1.00  0.00    -0.060 A 
HETATM   10  C   UNL     1       2.084   0.327   0.252  1.00  0.00     0.048 C 
HETATM   11  C   UNL     1      -0.416   0.199  -0.007  1.00  0.00     0.036 A 
ENDBRANCH   3   5
ENDBRANCH   1   3
BRANCH   1  12
HETATM   12  O   UNL     1      -4.432  -1.283   0.286  1.00  0.00    -0.278 OA
BRANCH  12  13
HETATM   13  C   UNL     1      -5.570  -2.089   0.014  1.00  0.00     0.150 A 
HETATM   14  C   UNL     1      -6.716  -2.029   0.922  1.00  0.00     0.205 A 
HETATM   15  C   UNL     1      -7.684  -2.926   0.672  1.00  0.00     0.057 A 
HETATM   16  O   UNL     1      -6.649  -1.140   1.808  1.00  0.00    -0.286 OA
HETATM   17  C   UNL     1      -7.621  -3.953  -0.416  1.00  0.00     0.206 A 
HETATM   18  O   UNL     1      -6.469  -3.930  -1.277  1.00  0.00    -0.356 OA
HETATM   19  C   UNL     1      -5.510  -3.003  -0.970  1.00  0.00     0.176 A 
ENDBRANCH  12  13
ENDBRANCH   1  12
TORSDOF 4
