REMARK  2 active torsions:
REMARK  status: ('A' for Active; 'I' for Inactive)
REMARK       I    between atoms: N_8  and  C_9 
REMARK    1  A    between atoms: C_9  and  C_11 
REMARK    2  A    between atoms: C_11  and  N_12 
ROOT
HETATM    1  C   UNL     1       0.000  -4.000   0.000  1.00  0.00     0.048 C 
HETATM    2  C   UNL     1       0.000  -3.000   0.000  1.00  0.00    -0.060 C 
HETATM    3  C   UNL     1       1.224  -2.338  -0.423  1.00  0.00     0.009 C 
HETATM    4  C   UNL     1       1.469  -0.969  -0.487  1.00  0.00     0.039 C 
HETATM    5  C   UNL     1       0.446  -0.119  -0.168  1.00  0.00     0.095 C 
HETATM    6  C   UNL     1      -0.823  -0.638   0.124  1.00  0.00     0.071 C 
HETATM    7  C   UNL     1      -0.990  -2.050   0.293  1.00  0.00     0.039 C 
HETATM    8  N   UNL     1      -1.904   0.292   0.209  1.00  0.00    -0.312 N 
HETATM    9  C   UNL     1      -3.199   0.092  -0.277  1.00  0.00     0.243 C 
HETATM   10  O   UNL     1      -4.084   0.935  -0.068  1.00  0.00    -0.271 OA
HETATM   11  C   UNL     1      -1.541   1.708   0.365  1.00  0.00     0.159 C 
HETATM   12  C   UNL     1      -0.081   1.923   0.718  1.00  0.00     0.196 C 
HETATM   13  O   UNL     1       0.744   1.219  -0.212  1.00  0.00    -0.347 OA
ENDROOT
BRANCH   9  14
HETATM   14  C   UNL     1      -3.458  -1.025  -1.266  1.00  0.00     0.249 C 
BRANCH  14  15
HETATM   15  N   UNL     1      -4.077  -2.195  -0.692  1.00  0.00    -0.274 N 
HETATM   16  N   UNL     1      -4.945  -2.112   0.325  1.00  0.00     0.005 NA
HETATM   17  N   UNL     1      -5.331  -3.343   0.623  1.00  0.00    -0.164 NA
HETATM   18  C   UNL     1      -4.700  -4.208  -0.232  1.00  0.00     0.065 A 
HETATM   19  C   UNL     1      -3.885  -3.491  -1.077  1.00  0.00     0.136 A 
HETATM   20  C   UNL     1      -4.938  -5.660  -0.158  1.00  0.00     0.073 C 
ENDBRANCH  14  15
ENDBRANCH   9  14
TORSDOF 2
