REMARK  8 active torsions:
REMARK  status: ('A' for Active; 'I' for Inactive)
REMARK    1  A    between atoms: C_2  and  O_3 
REMARK    2  A    between atoms: C_2  and  C_10 
REMARK    3  A    between atoms: O_3  and  C_4 
REMARK    4  A    between atoms: C_4  and  C_5 
REMARK    5  A    between atoms: C_10  and  C_11 
REMARK    6  A    between atoms: C_10  and  O_13 
REMARK    7  A    between atoms: C_11  and  O_12 
REMARK    8  A    between atoms: O_13  and  C_14 
ROOT
HETATM    1  C   UNL     1      -1.271   0.784   0.590  1.00  0.00     0.181 C 
ENDROOT
BRANCH   1   2
HETATM    2  C   UNL     1      -2.598   1.500   0.000  1.00  0.00     0.148 C 
HETATM    3  C   UNL     1      -2.598   2.500   0.000  1.00  0.00     0.042 C 
BRANCH   2   4
HETATM    4  O   UNL     1      -3.863   0.892   0.446  1.00  0.00    -0.383 OA
BRANCH   4   5
HETATM    5  C   UNL     1      -4.143  -0.411  -0.069  1.00  0.00     0.172 C 
BRANCH   5   6
HETATM    6  C   UNL     1      -5.615  -0.712  -0.331  1.00  0.00     0.009 C 
HETATM    7  C   UNL     1      -6.647  -0.059   0.566  1.00  0.00     0.007 C 
HETATM    8  C   UNL     1      -7.905  -0.899   0.336  1.00  0.00     0.000 C 
HETATM    9  C   UNL     1      -7.427  -2.293  -0.080  1.00  0.00     0.000 C 
HETATM   10  C   UNL     1      -5.910  -2.206  -0.157  1.00  0.00     0.007 C 
ENDBRANCH   5   6
ENDBRANCH   4   5
ENDBRANCH   2   4
ENDBRANCH   1   2
BRANCH   1  11
HETATM   11  C   UNL     1      -1.151  -0.701   0.134  1.00  0.00     0.199 C 
BRANCH  11  12
HETATM   12  O   UNL     1      -1.473  -1.599   1.194  1.00  0.00    -0.398 OA
HETATM   13  H   UNL     1      -0.861  -1.388   1.930  1.00  0.00     0.209 HD
ENDBRANCH  11  12
ENDBRANCH   1  11
BRANCH   1  14
HETATM   14  O   UNL     1      -0.127   1.579   0.149  1.00  0.00    -0.336 OA
BRANCH  14  15
HETATM   15  C   UNL     1       1.160   1.076   0.191  1.00  0.00     0.137 C 
HETATM   16  C   UNL     1       1.608  -0.046   1.068  1.00  0.00     0.186 C 
HETATM   17  C   UNL     1       2.744  -0.874   0.533  1.00  0.00     0.112 C 
HETATM   18  O   UNL     1       0.998  -0.346   2.097  1.00  0.00    -0.290 OA
HETATM   19  C   UNL     1       3.818   0.089   0.081  1.00  0.00     0.182 C 
HETATM   20  O   UNL     1       3.343   1.031  -0.888  1.00  0.00    -0.360 OA
HETATM   21  C   UNL     1       2.071   1.499  -0.698  1.00  0.00     0.175 C 
ENDBRANCH  14  15
ENDBRANCH   1  14
TORSDOF 8
