REMARK  2 active torsions:
REMARK  status: ('A' for Active; 'I' for Inactive)
REMARK    1  A    between atoms: C_5  and  C_6 
REMARK    2  A    between atoms: N_8  and  C_9 
ROOT
HETATM    1  C   UNL     1       0.541  -2.001  -0.000  1.00  0.00     0.092 C 
HETATM    2  C   UNL     1      -0.326  -0.824   0.000  1.00  0.00     0.108 A 
HETATM    3  N   UNL     1      -1.650  -0.883   0.000  1.00  0.00    -0.245 NA
HETATM    4  C   UNL     1      -2.099   0.398   0.000  1.00  0.00     0.151 A 
HETATM    5  C   UNL     1      -1.053   1.289   0.000  1.00  0.00     0.098 A 
HETATM    6  N   UNL     1       0.103   0.511   0.000  1.00  0.00    -0.273 N 
ENDROOT
BRANCH   5   7
HETATM    7  C   UNL     1      -1.147   2.723  -0.000  1.00  0.00     0.290 C 
HETATM    8  O   UNL     1      -0.191   3.491  -0.000  1.00  0.00    -0.300 OA
ENDBRANCH   5   7
BRANCH   6   9
HETATM    9  C   UNL     1       1.415   1.012  -0.000  1.00  0.00     0.361 C 
HETATM   10  O   UNL     1       2.377   0.252   0.000  1.00  0.00    -0.283 OA
ENDBRANCH   6   9
TORSDOF 2
