REMARK  5 active torsions:
REMARK  status: ('A' for Active; 'I' for Inactive)
REMARK    1  A    between atoms: C_2  and  C_5 
REMARK    2  A    between atoms: C_5  and  N_6 
REMARK    3  A    between atoms: N_6  and  C_7 
REMARK    4  A    between atoms: C_7  and  O_9 
REMARK    5  A    between atoms: O_9  and  C_10 
ROOT
HETATM    1  C   UNL     1       1.641  -1.798  -0.585  1.00  0.00     0.215 C 
HETATM    2  S   UNL     1       3.261  -1.775  -0.936  1.00  0.00    -0.033 SA
ENDROOT
BRANCH   1   3
HETATM    3  N   UNL     1       1.011  -3.012  -0.355  1.00  0.00    -0.360 N 
HETATM    4  H   UNL     1       1.676  -3.770  -0.352  1.00  0.00     0.162 HD
BRANCH   3   5
HETATM    5  C   UNL     1      -0.338  -3.317  -0.807  1.00  0.00     0.131 C 
BRANCH   5   6
HETATM    6  C   UNL     1      -1.546  -2.918   0.095  1.00  0.00    -0.035 C 
HETATM    7  C   UNL     1      -2.238  -4.197   0.617  1.00  0.00     0.016 C 
HETATM    8  C   UNL     1      -1.188  -2.059   1.317  1.00  0.00     0.016 C 
HETATM    9  C   UNL     1      -2.581  -2.165  -0.766  1.00  0.00     0.016 C 
ENDBRANCH   5   6
ENDBRANCH   3   5
ENDBRANCH   1   3
BRANCH   1  10
HETATM   10  O   UNL     1       0.782  -0.755  -0.723  1.00  0.00    -0.281 OA
BRANCH  10  11
HETATM   11  C   UNL     1       0.693   0.681  -0.531  1.00  0.00     0.128 C 
HETATM   12  C   UNL     1       1.558   1.475   0.349  1.00  0.00     0.227 C 
HETATM   13  C   UNL     1       1.328   2.807   0.362  1.00  0.00     0.192 C 
HETATM   14  O   UNL     1       2.412   0.821   0.999  1.00  0.00    -0.283 OA
HETATM   15  O   UNL     1       0.313   3.479  -0.265  1.00  0.00    -0.355 OA
HETATM   16  C   UNL     1      -0.785   2.648  -0.651  1.00  0.00     0.205 C 
HETATM   17  C   UNL     1      -0.420   1.252  -1.012  1.00  0.00     0.041 C 
ENDBRANCH  10  11
ENDBRANCH   1  10
TORSDOF 5
