REMARK  5 active torsions:
REMARK  status: ('A' for Active; 'I' for Inactive)
REMARK    1  A    between atoms: C_8  and  C_9 
REMARK    2  A    between atoms: C_9  and  O_10 
REMARK    3  A    between atoms: O_10  and  C_11 
REMARK    4  A    between atoms: C_11  and  C_12 
REMARK    5  A    between atoms: C_11  and  C_15 
ROOT
HETATM    1  C   UNL     1      -3.827   0.949  -0.266  1.00  0.00     0.196 C 
ENDROOT
BRANCH   1   2
HETATM    2  C   UNL     1      -4.901   0.148   0.409  1.00  0.00     0.010 C 
HETATM    3  C   UNL     1      -6.241   0.299   0.352  1.00  0.00    -0.006 C 
HETATM    4  C   UNL     1      -7.217  -0.669   0.927  1.00  0.00     0.199 C 
HETATM    5  C   UNL     1      -6.861   1.455  -0.405  1.00  0.00     0.069 C 
HETATM    6  O   UNL     1      -6.717  -1.504   1.729  1.00  0.00    -0.286 OA
HETATM    7  C   UNL     1      -8.494  -0.601   0.487  1.00  0.00     0.189 C 
HETATM    8  O   UNL     1      -9.054   0.373  -0.305  1.00  0.00    -0.359 OA
HETATM    9  C   UNL     1      -8.344   1.599  -0.117  1.00  0.00     0.179 C 
ENDBRANCH   1   2
BRANCH   1  10
HETATM   10  O   UNL     1      -2.837   0.115  -0.918  1.00  0.00    -0.381 OA
BRANCH  10  11
HETATM   11  C   UNL     1      -1.866  -0.500   0.000  1.00  0.00     0.130 C 
BRANCH  11  12
HETATM   12  C   UNL     1      -2.438  -1.917   0.324  1.00  0.00     0.015 A 
HETATM   13  C   UNL     1      -1.924  -3.232  -0.240  1.00  0.00     0.007 A 
HETATM   14  C   UNL     1      -3.244  -2.693  -0.699  1.00  0.00     0.007 A 
ENDBRANCH  11  12
BRANCH  11  15
HETATM   15  C   UNL     1      -0.866  -0.500   0.000  1.00  0.00     0.015 A 
HETATM   16  C   UNL     1      -0.466   0.818  -0.678  1.00  0.00     0.007 A 
HETATM   17  C   UNL     1      -0.523  -0.417  -1.588  1.00  0.00     0.007 A 
ENDBRANCH  11  15
ENDBRANCH  10  11
ENDBRANCH   1  10
TORSDOF 5
