REMARK  2 active torsions:
REMARK  status: ('A' for Active; 'I' for Inactive)
REMARK    1  A    between atoms: S_2  and  C_3 
REMARK    2  A    between atoms: C_6  and  C_7 
ROOT
HETATM    1  C   UNL     1       0.654   0.680  -0.147  1.00  0.00     0.187 A 
HETATM    2  N   UNL     1       1.862   0.084  -0.166  1.00  0.00    -0.234 NA
HETATM    3  C   UNL     1       1.872  -1.267  -0.112  1.00  0.00     0.135 A 
HETATM    4  C   UNL     1       0.727  -2.026  -0.046  1.00  0.00     0.037 A 
HETATM    5  C   UNL     1      -0.456  -1.330  -0.045  1.00  0.00     0.135 A 
HETATM    6  N   UNL     1      -0.518   0.017  -0.095  1.00  0.00    -0.234 NA
ENDROOT
BRANCH   1   7
HETATM    7  S   UNL     1       0.547   2.450  -0.156  1.00  0.00    -0.095 SA
HETATM    8  C   UNL     1       2.279   2.897   0.114  1.00  0.00     0.099 C 
ENDBRANCH   1   7
BRANCH   4   9
HETATM    9  C   UNL     1       0.756  -3.487   0.029  1.00  0.00     0.272 C 
HETATM   10  O   UNL     1       1.814  -4.100   0.039  1.00  0.00    -0.301 OA
ENDBRANCH   4   9
TORSDOF 2
