REMARK  2 active torsions:
REMARK  status: ('A' for Active; 'I' for Inactive)
REMARK    1  A    between atoms: N_4  and  C_5 
REMARK    2  A    between atoms: C_5  and  C_6 
ROOT
HETATM    1  C   UNL     1      -4.570   0.809  -0.075  1.00  0.00    -0.021 A 
HETATM    2  C   UNL     1      -4.696  -0.445   0.539  1.00  0.00     0.013 A 
HETATM    3  C   UNL     1      -5.938  -1.066   0.612  1.00  0.00     0.045 A 
HETATM    4  C   UNL     1      -7.031  -0.398   0.092  1.00  0.00     0.125 A 
HETATM    5 CL   UNL     1      -8.596  -1.094   0.137  1.00  0.00    -0.062 Cl
HETATM    6  N   UNL     1      -6.970   0.820  -0.479  1.00  0.00    -0.248 NA
HETATM    7  C   UNL     1      -5.748   1.395  -0.543  1.00  0.00     0.127 A 
ENDROOT
BRANCH   1   8
HETATM    8  C   UNL     1      -3.277   1.572  -0.235  1.00  0.00     0.185 C 
BRANCH   8   9
HETATM    9  N   UNL     1      -2.076   0.800   0.042  1.00  0.00    -0.279 N 
HETATM   10  C   UNL     1      -1.620  -0.324  -0.586  1.00  0.00     0.136 A 
HETATM   11  C   UNL     1      -0.536  -0.704   0.169  1.00  0.00     0.065 A 
HETATM   12  C   UNL     1       0.307  -1.912   0.083  1.00  0.00     0.073 C 
HETATM   13  N   UNL     1      -0.316   0.233   1.147  1.00  0.00    -0.164 NA
HETATM   14  N   UNL     1      -1.261   1.157   1.050  1.00  0.00     0.004 NA
ENDBRANCH   8   9
ENDBRANCH   1   8
TORSDOF 2
