REMARK  3 active torsions:
REMARK  status: ('A' for Active; 'I' for Inactive)
REMARK    1  A    between atoms: C_2  and  S_3 
REMARK    2  A    between atoms: S_3  and  C_4 
REMARK    3  A    between atoms: C_7  and  C_8 
ROOT
HETATM    1  C   UNL     1       1.403  -0.316  -0.000  1.00  0.00     0.007 A 
HETATM    2  C   UNL     1       1.398  -1.717   0.000  1.00  0.00     0.020 A 
HETATM    3  C   UNL     1       0.195  -2.436   0.000  1.00  0.00     0.014 A 
HETATM    4  C   UNL     1      -1.035  -1.769  -0.000  1.00  0.00    -0.022 A 
HETATM    5  C   UNL     1      -1.026  -0.372   0.000  1.00  0.00     0.014 A 
HETATM    6  C   UNL     1       0.173   0.341  -0.000  1.00  0.00     0.020 A 
ENDROOT
BRANCH   4   7
HETATM    7  C   UNL     1      -2.287  -2.503   0.000  1.00  0.00     0.018 A 
HETATM    8  C   UNL     1      -3.546  -1.945  -0.000  1.00  0.00     0.183 A 
HETATM    9  O   UNL     1      -4.488  -2.919   0.000  1.00  0.00    -0.225 OA
HETATM   10  N   UNL     1      -3.867  -4.155  -0.000  1.00  0.00    -0.141 NA
HETATM   11  C   UNL     1      -2.559  -3.890   0.000  1.00  0.00     0.161 A 
ENDBRANCH   4   7
BRANCH   1  12
HETATM   12  S   UNL     1       2.993   0.483  -0.000  1.00  0.00    -0.062 SA
BRANCH  12  13
HETATM   13  C   UNL     1       2.677   2.203  -0.000  1.00  0.00     0.309 C 
HETATM   14  O   UNL     1       3.596   3.016  -0.000  1.00  0.00    -0.295 OA
ENDBRANCH  12  13
ENDBRANCH   1  12
TORSDOF 3
