REMARK  4 active torsions:
REMARK  status: ('A' for Active; 'I' for Inactive)
REMARK    1  A    between atoms: C_2  and  C_3 
REMARK    2  A    between atoms: C_3  and  O_4 
REMARK    3  A    between atoms: C_3  and  C_5 
REMARK    4  A    between atoms: C_5  and  S_7 
ROOT
HETATM    1  C   UNL     1       3.392  -0.963   0.408  1.00  0.00     0.221 C 
ENDROOT
BRANCH   1   2
HETATM    2  C   UNL     1       3.461  -2.381  -0.087  1.00  0.00     0.003 C 
HETATM    3  C   UNL     1       2.478  -3.265  -0.306  1.00  0.00     0.010 C 
ENDBRANCH   1   2
BRANCH   1   4
HETATM    4  O   UNL     1       4.574  -0.328  -0.121  1.00  0.00    -0.383 OA
HETATM    5  H   UNL     1       4.298   0.558  -0.434  1.00  0.00     0.211 HD
ENDBRANCH   1   4
BRANCH   1   6
HETATM    6  C   UNL     1       2.166  -0.086   0.028  1.00  0.00     0.217 C 
HETATM    7  O   UNL     1       2.293   0.914  -0.672  1.00  0.00    -0.282 OA
BRANCH   6   8
HETATM    8  S   UNL     1       0.637  -0.495   0.805  1.00  0.00    -0.094 SA
HETATM    9  C   UNL     1      -0.491   0.665   0.001  1.00  0.00     0.099 C 
ENDBRANCH   6   8
ENDBRANCH   1   6
TORSDOF 4
