REMARK  5 active torsions:
REMARK  status: ('A' for Active; 'I' for Inactive)
REMARK    1  A    between atoms: C_3  and  C_4 
REMARK    2  A    between atoms: C_3  and  O_6 
REMARK    3  A    between atoms: O_6  and  C_7 
REMARK    4  A    between atoms: C_12  and  S_13 
REMARK    5  A    between atoms: S_13  and  C_14 
ROOT
HETATM    1  C   UNL     1      -3.464  -1.000   0.000  1.00  0.00     0.015 C 
HETATM    2  C   UNL     1      -2.598  -1.500   0.000  1.00  0.00    -0.085 C 
HETATM    3  C   UNL     1      -1.732  -2.000   0.000  1.00  0.00     0.206 C 
ENDROOT
BRANCH   3   4
HETATM    4  C   UNL     1      -1.655  -3.427  -0.573  1.00  0.00     0.041 C 
HETATM    5  C   UNL     1      -0.265  -4.050  -0.398  1.00  0.00     0.009 C 
ENDBRANCH   3   4
BRANCH   3   6
HETATM    6  O   UNL     1      -0.648  -1.239  -0.743  1.00  0.00    -0.332 OA
BRANCH   6   7
HETATM    7  C   UNL     1      -0.343   0.087  -0.421  1.00  0.00     0.087 A 
HETATM    8  C   UNL     1       1.004   0.469  -0.223  1.00  0.00     0.041 A 
HETATM    9  C   UNL     1       1.286   1.820   0.071  1.00  0.00     0.022 A 
HETATM   10  C   UNL     1       0.285   2.794   0.141  1.00  0.00     0.002 A 
HETATM   11  C   UNL     1      -1.021   2.434  -0.122  1.00  0.00     0.003 A 
HETATM   12  C   UNL     1      -1.316   1.105  -0.437  1.00  0.00     0.038 A 
BRANCH   8  13
HETATM   13  S   UNL     1       2.300  -0.766  -0.349  1.00  0.00    -0.059 SA
BRANCH  13  14
HETATM   14  C   UNL     1       3.818   0.114  -0.296  1.00  0.00     0.309 C 
HETATM   15  O   UNL     1       4.061   1.125  -0.934  1.00  0.00    -0.295 OA
ENDBRANCH  13  14
ENDBRANCH   8  13
ENDBRANCH   6   7
ENDBRANCH   3   6
TORSDOF 5
