REMARK  3 active torsions:
REMARK  status: ('A' for Active; 'I' for Inactive)
REMARK    1  A    between atoms: S_2  and  C_3 
REMARK    2  A    between atoms: C_3  and  C_5 
REMARK    3  A    between atoms: C_5  and  C_6 
ROOT
HETATM    1  C   UNL     1      -0.438  -1.373  -0.333  1.00  0.00     0.070 A 
HETATM    2  C   UNL     1      -0.983  -2.383   0.338  1.00  0.00     0.107 A 
HETATM    3  C   UNL     1      -2.389  -2.201  -0.005  1.00  0.00     0.287 A 
HETATM    4  O   UNL     1      -3.274  -2.944   0.389  1.00  0.00    -0.265 OA
HETATM    5  N   UNL     1      -2.500  -1.106  -0.838  1.00  0.00    -0.107 NA
HETATM    6  N   UNL     1      -1.350  -0.630  -1.029  1.00  0.00    -0.151 NA
ENDROOT
BRANCH   1   7
HETATM    7  C   UNL     1       1.013  -1.046  -0.428  1.00  0.00     0.152 C 
BRANCH   7   8
HETATM    8  C   UNL     1       1.329   0.210   0.361  1.00  0.00     0.191 C 
HETATM    9  O   UNL     1       0.884   0.455   1.475  1.00  0.00    -0.285 OA
BRANCH   8  10
HETATM   10  S   UNL     1       2.518   1.272  -0.389  1.00  0.00    -0.097 SA
HETATM   11  C   UNL     1       4.002   0.422   0.188  1.00  0.00     0.098 C 
ENDBRANCH   8  10
ENDBRANCH   7   8
ENDBRANCH   1   7
TORSDOF 3
