REMARK  2 active torsions:
REMARK  status: ('A' for Active; 'I' for Inactive)
REMARK    1  A    between atoms: C_5  and  O_6 
REMARK    2  A    between atoms: O_6  and  C_7 
ROOT
HETATM    1  C   UNL     1       0.102   1.295   0.000  1.00  0.00     0.048 A 
HETATM    2  C   UNL     1       0.809   0.588   0.000  1.00  0.00     0.153 A 
HETATM    3  C   UNL     1       1.643   1.140   0.000  1.00  0.00     0.048 A 
HETATM    4  C   UNL     1       0.727  -0.580   1.090  1.00  0.00     0.074 C 
HETATM    5  C   UNL     1       1.075  -1.875   0.342  1.00  0.00     0.161 C 
HETATM    6  C   UNL     1       0.378  -1.635  -0.982  1.00  0.00     0.302 C 
HETATM    7  N   UNL     1       0.737  -0.255  -1.299  1.00  0.00     0.095 N 
HETATM    8  H   UNL     1       0.096   0.141  -1.989  1.00  0.00     0.317 HD
ENDROOT
BRANCH   5   9
HETATM    9  O   UNL     1       0.576  -3.018   1.039  1.00  0.00    -0.321 OA
BRANCH   9  10
HETATM   10  C   UNL     1       0.999  -4.207   0.529  1.00  0.00     0.398 C 
HETATM   11  O   UNL     1       1.719  -4.376  -0.439  1.00  0.00    -0.276 OA
ENDBRANCH   9  10
ENDBRANCH   5   9
TORSDOF 2
