REMARK  3 active torsions:
REMARK  status: ('A' for Active; 'I' for Inactive)
REMARK    1  A    between atoms: S_2  and  C_3 
REMARK    2  A    between atoms: C_3  and  N_5 
REMARK    3  A    between atoms: N_5  and  C_6 
ROOT
HETATM    1  C   UNL     1       0.580  -0.536   1.262  1.00  0.00     0.074 C 
HETATM    2  C   UNL     1      -0.749  -0.317   1.609  1.00  0.00     0.035 C 
HETATM    3  C   UNL     1      -1.486   0.665   0.941  1.00  0.00     0.029 C 
HETATM    4  C   UNL     1      -0.866   1.500   0.000  1.00  0.00     0.032 C 
HETATM    5  C   UNL     1      -0.866   2.500   0.000  1.00  0.00     0.070 C 
HETATM    6  N   UNL     1       0.348   1.077  -0.490  1.00  0.00    -0.239 NA
HETATM    7  C   UNL     1       1.070   0.153   0.172  1.00  0.00     0.152 C 
HETATM    8 CL   UNL     1       2.633  -0.119  -0.488  1.00  0.00    -0.060 Cl
ENDROOT
BRANCH   1   9
HETATM    9  N   UNL     1       1.270  -1.622   1.851  1.00  0.00    -0.341 N 
HETATM   10  H   UNL     1       2.268  -1.492   2.000  1.00  0.00     0.167 HD
BRANCH   9  11
HETATM   11  C   UNL     1       1.046  -2.908   1.383  1.00  0.00     0.107 C 
HETATM   12  S   UNL     1       1.950  -4.173   1.991  1.00  0.00    -0.056 SA
BRANCH  11  13
HETATM   13  S   UNL     1       0.000  -3.000   0.000  1.00  0.00    -0.239 SA
HETATM   14  C   UNL     1      -0.866  -3.500   0.000  1.00  0.00     0.268 C 
ENDBRANCH  11  13
ENDBRANCH   9  11
ENDBRANCH   1   9
TORSDOF 3
