REMARK  4 active torsions:
REMARK  status: ('A' for Active; 'I' for Inactive)
REMARK    1  A    between atoms: C_7  and  O_8 
REMARK    2  A    between atoms: O_8  and  C_9 
REMARK    3  A    between atoms: C_9  and  C_10 
REMARK    4  A    between atoms: C_10  and  N_11 
ROOT
HETATM    1  O   UNL     1      -2.812   1.516  -0.630  1.00  0.00    -0.346 OA
ENDROOT
BRANCH   1   2
HETATM    2  C   UNL     1      -4.072   0.977  -0.377  1.00  0.00     0.119 C 
HETATM    3  C   UNL     1      -4.411  -0.465  -0.436  1.00  0.00     0.226 C 
HETATM    4  O   UNL     1      -3.562  -1.208  -0.997  1.00  0.00    -0.283 OA
HETATM    5  C   UNL     1      -5.594  -0.818   0.104  1.00  0.00     0.192 C 
HETATM    6  O   UNL     1      -6.553   0.014   0.620  1.00  0.00    -0.355 OA
HETATM    7  C   UNL     1      -6.439   1.377   0.203  1.00  0.00     0.205 C 
HETATM    8  C   UNL     1      -5.054   1.843  -0.088  1.00  0.00     0.040 C 
ENDBRANCH   1   2
BRANCH   1   9
HETATM    9  C   UNL     1      -1.681   0.728  -0.253  1.00  0.00     0.196 C 
BRANCH   9  10
HETATM   10  C   UNL     1      -0.500   1.664  -0.031  1.00  0.00     0.156 C 
BRANCH  10  11
HETATM   11  N   UNL     1       0.795   1.029   0.119  1.00  0.00    -0.348 N 
HETATM   12  C   UNL     1       1.070  -0.297   0.300  1.00  0.00     0.209 A 
HETATM   13  N   UNL     1       2.365  -0.514   0.395  1.00  0.00    -0.255 NA
HETATM   14  C   UNL     1       2.948   0.716   0.260  1.00  0.00     0.135 A 
HETATM   15  C   UNL     1       1.995   1.692   0.095  1.00  0.00     0.111 A 
ENDBRANCH  10  11
ENDBRANCH   9  10
ENDBRANCH   1   9
TORSDOF 4
