REMARK  9 active torsions:
REMARK  status: ('A' for Active; 'I' for Inactive)
REMARK    1  A    between atoms: C_2  and  O_3 
REMARK    2  A    between atoms: O_3  and  C_4 
REMARK    3  A    between atoms: C_4  and  C_6 
REMARK    4  A    between atoms: C_6  and  C_7 
REMARK    5  A    between atoms: C_7  and  C_9 
REMARK    6  A    between atoms: C_9  and  O_10 
REMARK    7  A    between atoms: O_10  and  C_11 
REMARK    8  A    between atoms: C_11  and  C_12 
REMARK    9  A    between atoms: C_12  and  N_13 
ROOT
HETATM    1  C   UNL     1      -4.986   0.254  -0.316  1.00  0.00     0.246 C 
ENDROOT
BRANCH   1   2
HETATM    2  C   UNL     1      -4.494  -1.186  -0.518  1.00  0.00     0.159 C 
HETATM    3  O   UNL     1      -4.147  -1.612  -1.624  1.00  0.00    -0.295 OA
BRANCH   2   4
HETATM    4  C   UNL     1      -4.445  -2.058   0.709  1.00  0.00     0.191 C 
BRANCH   4   5
HETATM    5  C   UNL     1      -5.212  -3.338   0.586  1.00  0.00     0.265 C 
HETATM    6  O   UNL     1      -4.962  -4.337   1.241  1.00  0.00    -0.265 OA
BRANCH   5   7
HETATM    7  O   UNL     1      -6.304  -3.162  -0.195  1.00  0.00    -0.322 OA
BRANCH   7   8
HETATM    8  C   UNL     1      -7.291  -4.199  -0.148  1.00  0.00     0.174 C 
HETATM    9  C   UNL     1      -8.622  -3.516  -0.393  1.00  0.00     0.034 C 
ENDBRANCH   7   8
ENDBRANCH   5   7
ENDBRANCH   4   5
ENDBRANCH   2   4
ENDBRANCH   1   2
BRANCH   1  10
HETATM   10  O   UNL     1      -4.448   1.286  -1.130  1.00  0.00    -0.382 OA
BRANCH  10  11
HETATM   11  C   UNL     1      -3.021   1.278  -1.252  1.00  0.00     0.189 C 
BRANCH  11  12
HETATM   12  C   UNL     1      -2.300   1.554   0.064  1.00  0.00     0.172 C 
BRANCH  12  13
HETATM   13  N   UNL     1      -0.940   1.076   0.046  1.00  0.00    -0.281 N 
HETATM   14  N   UNL     1      -0.685  -0.203   0.366  1.00  0.00     0.004 NA
HETATM   15  N   UNL     1       0.632  -0.350   0.380  1.00  0.00    -0.164 NA
HETATM   16  C   UNL     1       1.201   0.858   0.069  1.00  0.00     0.065 A 
HETATM   17  C   UNL     1       0.204   1.779  -0.168  1.00  0.00     0.136 A 
HETATM   18  C   UNL     1       2.666   1.019   0.054  1.00  0.00     0.073 C 
ENDBRANCH  12  13
ENDBRANCH  11  12
ENDBRANCH  10  11
ENDBRANCH   1  10
TORSDOF 9
