REMARK  6 active torsions:
REMARK  status: ('A' for Active; 'I' for Inactive)
REMARK    1  A    between atoms: N_4  and  C_5 
REMARK    2  A    between atoms: C_5  and  C_6 
REMARK    3  A    between atoms: C_6  and  O_7 
REMARK    4  A    between atoms: O_7  and  C_8 
REMARK    5  A    between atoms: C_12  and  C_13 
REMARK    6  A    between atoms: C_13  and  O_15 
ROOT
HETATM    1  C   UNL     1      -6.470   0.615  -0.283  1.00  0.00     0.069 A 
HETATM    2  C   UNL     1      -6.406  -0.766  -0.511  1.00  0.00     0.037 A 
HETATM    3  C   UNL     1      -7.565  -1.544  -0.497  1.00  0.00     0.004 A 
HETATM    4  C   UNL     1      -8.801  -0.944  -0.279  1.00  0.00     0.018 A 
HETATM    5  C   UNL     1      -8.880   0.440  -0.093  1.00  0.00     0.040 A 
HETATM    6  C   UNL     1      -7.713   1.218  -0.096  1.00  0.00     0.055 A 
ENDROOT
BRANCH   1   7
HETATM    7  O   UNL     1      -5.389   1.462  -0.207  1.00  0.00    -0.349 OA
BRANCH   7   8
HETATM    8  C   UNL     1      -4.129   0.797  -0.139  1.00  0.00     0.197 C 
BRANCH   8   9
HETATM    9  C   UNL     1      -3.001   1.736   0.271  1.00  0.00     0.172 C 
BRANCH   9  10
HETATM   10  N   UNL     1      -1.742   1.018   0.218  1.00  0.00    -0.281 N 
HETATM   11  C   UNL     1      -1.495  -0.245   0.682  1.00  0.00     0.136 C 
HETATM   12  C   UNL     1      -0.434  -0.671  -0.083  1.00  0.00     0.065 C 
HETATM   13  C   UNL     1       0.120  -2.030  -0.228  1.00  0.00     0.073 C 
HETATM   14  N   UNL     1       0.031   0.380  -0.825  1.00  0.00    -0.164 NA
HETATM   15  N   UNL     1      -0.771   1.419  -0.621  1.00  0.00     0.004 NA
ENDBRANCH   9  10
ENDBRANCH   8   9
ENDBRANCH   7   8
ENDBRANCH   1   7
BRANCH   5  16
HETATM   16  C   UNL     1     -10.177   1.122   0.136  1.00  0.00     0.176 C 
HETATM   17  O   UNL     1     -10.338   2.315   0.296  1.00  0.00    -0.646 OA
BRANCH  16  18
HETATM   18  O   UNL     1     -11.214   0.268   0.157  1.00  0.00    -0.773 OA
HETATM   19  H   UNL     1     -11.988   0.846   0.317  1.00  0.00     0.167 HD
ENDBRANCH  16  18
ENDBRANCH   5  16
TORSDOF 6
