REMARK  16 active torsions:
REMARK  status: ('A' for Active; 'I' for Inactive)
REMARK    1  A    between atoms: C_2  and  C_4 
REMARK    2  A    between atoms: C_4  and  C_5 
REMARK    3  A    between atoms: C_5  and  C_7 
REMARK    4  A    between atoms: C_7  and  C_8 
REMARK    5  A    between atoms: C_7  and  N_23 
REMARK    6  A    between atoms: C_8  and  C_10 
REMARK    7  A    between atoms: C_10  and  C_11 
REMARK    8  A    between atoms: C_10  and  C_14 
REMARK    9  A    between atoms: C_11  and  C_12 
REMARK   10  A    between atoms: C_12  and  O_13 
REMARK   11  A    between atoms: C_14  and  C_16 
REMARK   12  A    between atoms: C_21  and  O_22 
REMARK   13  A    between atoms: C_27  and  C_28 
REMARK   14  A    between atoms: C_28  and  N_29 
REMARK   15  A    between atoms: C_28  and  C_30 
REMARK   16  A    between atoms: C_30  and  C_31 
ROOT
HETATM    1  C   UNL     1      -1.135  -2.810  -0.858  1.00  0.00     0.247 C 
ENDROOT
BRANCH   1   2
HETATM    2  C   UNL     1      -1.256  -4.293  -1.221  1.00  0.00     0.165 C 
HETATM    3  O   UNL     1      -2.345  -4.795  -1.517  1.00  0.00    -0.295 OA
BRANCH   2   4
HETATM    4  C   UNL     1      -0.021  -5.146  -1.407  1.00  0.00     0.158 C 
BRANCH   4   5
HETATM    5  C   UNL     1      -0.240  -6.609  -1.089  1.00  0.00     0.130 C 
HETATM    6  C   UNL     1      -1.129  -6.985   0.071  1.00  0.00     0.091 C 
HETATM    7  O   UNL     1       0.347  -7.478  -1.743  1.00  0.00    -0.298 OA
ENDBRANCH   4   5
ENDBRANCH   2   4
ENDBRANCH   1   2
BRANCH   1   8
HETATM    8  C   UNL     1      -2.417  -1.989  -1.096  1.00  0.00     0.170 C 
HETATM    9  O   UNL     1      -2.284  -0.890  -1.648  1.00  0.00    -0.294 OA
BRANCH   8  10
HETATM   10  C   UNL     1      -3.805  -2.543  -0.766  1.00  0.00     0.135 C 
BRANCH  10  11
HETATM   11  C   UNL     1      -3.891  -3.229   0.604  1.00  0.00     0.046 C 
BRANCH  11  12
HETATM   12  C   UNL     1      -4.907  -4.376   0.601  1.00  0.00     0.165 C 
BRANCH  12  13
HETATM   13  O   UNL     1      -4.447  -5.391   1.486  1.00  0.00    -0.401 OA
HETATM   14  H   UNL     1      -5.036  -6.157   1.355  1.00  0.00     0.209 HD
ENDBRANCH  12  13
ENDBRANCH  11  12
ENDBRANCH  10  11
BRANCH  10  15
HETATM   15  C   UNL     1      -5.070  -1.731  -1.025  1.00  0.00     0.173 C 
HETATM   16  O   UNL     1      -6.099  -2.311  -1.392  1.00  0.00    -0.291 OA
BRANCH  15  17
HETATM   17  C   UNL     1      -5.206  -0.275  -0.800  1.00  0.00     0.044 A 
HETATM   18  C   UNL     1      -6.061   0.196   0.204  1.00  0.00     0.079 A 
HETATM   19  C   UNL     1      -6.416   1.547   0.267  1.00  0.00     0.037 A 
HETATM   20  C   UNL     1      -5.925   2.435  -0.692  1.00  0.00     0.003 A 
HETATM   21  C   UNL     1      -5.086   1.971  -1.707  1.00  0.00     0.001 A 
HETATM   22  C   UNL     1      -4.745   0.617  -1.773  1.00  0.00     0.018 A 
BRANCH  18  23
HETATM   23  O   UNL     1      -6.581  -0.670   1.127  1.00  0.00    -0.360 OA
HETATM   24  H   UNL     1      -7.434  -0.315   1.434  1.00  0.00     0.217 HD
ENDBRANCH  18  23
ENDBRANCH  15  17
ENDBRANCH  10  15
ENDBRANCH   8  10
ENDBRANCH   1   8
BRANCH   1  25
HETATM   25  N   UNL     1      -0.464  -2.534   0.422  1.00  0.00    -0.242 N 
HETATM   26  C   UNL     1      -0.136  -1.339   1.045  1.00  0.00     0.171 C 
HETATM   27  N   UNL     1       0.936  -1.548   1.787  1.00  0.00    -0.145 NA
HETATM   28  N   UNL     1       1.189  -2.885   1.737  1.00  0.00     0.018 NA
HETATM   29  N   UNL     1       0.307  -3.500   0.969  1.00  0.00    -0.002 NA
BRANCH  26  30
HETATM   30  C   UNL     1      -1.006  -0.128   1.148  1.00  0.00     0.289 C 
BRANCH  30  31
HETATM   31  N   UNL     1      -1.535  -0.121   2.521  1.00  0.00     0.090 N 
HETATM   32  H   UNL     1      -0.747  -0.104   3.169  1.00  0.00     0.313 HD
HETATM   33  H   UNL     1      -2.064   0.725   2.710  1.00  0.00     0.313 HD
ENDBRANCH  30  31
BRANCH  30  34
HETATM   34  C   UNL     1      -0.308   1.212   0.771  1.00  0.00     0.047 C 
BRANCH  34  35
HETATM   35  C   UNL     1      -1.242   2.250   0.000  1.00  0.00    -0.020 C 
HETATM   36  C   UNL     1      -2.641   2.218   0.755  1.00  0.00     0.009 C 
HETATM   37  C   UNL     1      -1.040   3.200   0.000  1.00  0.00     0.009 C 
ENDBRANCH  34  35
ENDBRANCH  30  34
ENDBRANCH  26  30
ENDBRANCH   1  25
TORSDOF 16
