REMARK  3 active torsions:
REMARK  status: ('A' for Active; 'I' for Inactive)
REMARK    1  A    between atoms: S_2  and  C_3 
REMARK    2  A    between atoms: C_3  and  C_5 
REMARK    3  A    between atoms: C_6  and  C_7 
ROOT
HETATM    1  C   UNL     1       1.245  -3.024   0.252  1.00  0.00     0.061 C 
HETATM    2  C   UNL     1       1.254  -1.949   1.055  1.00  0.00     0.012 C 
ENDROOT
BRANCH   1   3
HETATM    3  C   UNL     1       2.440  -3.905   0.196  1.00  0.00     0.208 C 
HETATM    4  O   UNL     1       3.450  -3.732   0.859  1.00  0.00    -0.281 OA
BRANCH   3   5
HETATM    5  S   UNL     1       2.277  -5.241  -0.922  1.00  0.00    -0.093 SA
HETATM    6  C   UNL     1       1.329  -6.358   0.132  1.00  0.00     0.099 C 
ENDBRANCH   3   5
ENDBRANCH   1   3
BRANCH   2   7
HETATM    7  C   UNL     1       0.194  -0.944   1.201  1.00  0.00     0.173 A 
HETATM    8  O   UNL     1      -1.030  -0.885   0.453  1.00  0.00    -0.372 OA
HETATM    9  C   UNL     1       0.000   0.000   0.000  1.00  0.00     0.151 A 
HETATM   10  C   UNL     1       0.000   1.000   0.000  1.00  0.00     0.042 C 
ENDBRANCH   2   7
TORSDOF 3
