REMARK  7 active torsions:
REMARK  status: ('A' for Active; 'I' for Inactive)
REMARK    1  A    between atoms: S_2  and  C_3 
REMARK    2  A    between atoms: C_3  and  C_4 
REMARK    3  A    between atoms: C_4  and  O_5 
REMARK    4  A    between atoms: C_4  and  C_6 
REMARK    5  A    between atoms: C_6  and  O_7 
REMARK    6  A    between atoms: O_7  and  C_8 
REMARK    7  A    between atoms: C_8  and  C_9 
ROOT
HETATM    1  O   UNL     1      -0.286  -0.875   1.103  1.00  0.00    -0.384 OA
ENDROOT
BRANCH   1   2
HETATM    2  C   UNL     1      -0.729  -1.789   0.093  1.00  0.00     0.200 C 
BRANCH   2   3
HETATM    3  C   UNL     1       0.175  -3.030   0.028  1.00  0.00     0.151 C 
BRANCH   3   4
HETATM    4  C   UNL     1      -0.380  -4.105  -0.919  1.00  0.00     0.107 C 
BRANCH   4   5
HETATM    5  S   UNL     1      -1.330  -5.428  -0.090  1.00  0.00    -0.171 SA
HETATM    6  C   UNL     1      -2.934  -4.617   0.122  1.00  0.00     0.089 C 
ENDBRANCH   4   5
ENDBRANCH   3   4
BRANCH   3   7
HETATM    7  O   UNL     1       1.467  -2.639  -0.466  1.00  0.00    -0.393 OA
HETATM    8  H   UNL     1       2.087  -3.356  -0.243  1.00  0.00     0.210 HD
ENDBRANCH   3   7
ENDBRANCH   2   3
ENDBRANCH   1   2
BRANCH   1   9
HETATM    9  C   UNL     1       0.655   0.089   0.627  1.00  0.00     0.206 C 
BRANCH   9  10
HETATM   10  C   UNL     1       0.007   1.406   0.254  1.00  0.00    -0.035 A 
HETATM   11  C   UNL     1       0.819   2.444  -0.231  1.00  0.00     0.011 A 
HETATM   12  C   UNL     1       0.271   3.684  -0.568  1.00  0.00     0.019 A 
HETATM   13  C   UNL     1      -1.100   3.893  -0.427  1.00  0.00     0.011 A 
HETATM   14  C   UNL     1      -1.922   2.873   0.043  1.00  0.00     0.019 A 
HETATM   15 BR   UNL     1      -1.843   5.573  -0.867  1.00  0.00    -0.051 Br
HETATM   16  C   UNL     1      -1.371   1.635   0.385  1.00  0.00     0.011 A 
ENDBRANCH   9  10
ENDBRANCH   1   9
TORSDOF 7
