REMARK  1 active torsions:
REMARK  status: ('A' for Active; 'I' for Inactive)
REMARK    1  A    between atoms: N_4  and  C_5 
ROOT
HETATM    1  C   UNL     1      -3.205   1.448  -0.012  1.00  0.00     0.127 C 
HETATM    2  C   UNL     1      -4.397   0.846  -0.154  1.00  0.00     0.037 C 
HETATM    3  C   UNL     1      -4.779  -0.583  -0.260  1.00  0.00     0.078 C 
HETATM    4  C   UNL     1      -6.122  -0.548   0.434  1.00  0.00     0.132 C 
HETATM    5  C   UNL     1      -7.040  -1.664  -0.030  1.00  0.00     0.040 C 
HETATM    6  O   UNL     1      -6.677   0.731   0.120  1.00  0.00    -0.312 OA
HETATM    7  C   UNL     1      -5.661   1.619  -0.079  1.00  0.00     0.291 C 
HETATM    8  O   UNL     1      -5.777   2.825  -0.194  1.00  0.00    -0.260 OA
ENDROOT
BRANCH   1   9
HETATM    9  N   UNL     1      -1.937   0.869   0.009  1.00  0.00    -0.258 N 
HETATM   10  C   UNL     1      -1.585  -0.420  -0.358  1.00  0.00     0.141 C 
HETATM   11  C   UNL     1      -0.301  -0.600   0.091  1.00  0.00     0.065 C 
HETATM   12  C   UNL     1       0.514  -1.828   0.112  1.00  0.00     0.073 C 
HETATM   13  N   UNL     1       0.164   0.586   0.566  1.00  0.00    -0.163 NA
HETATM   14  N   UNL     1      -0.802   1.487   0.442  1.00  0.00     0.009 NA
ENDBRANCH   1   9
TORSDOF 1
