REMARK  12 active torsions:
REMARK  status: ('A' for Active; 'I' for Inactive)
REMARK    1  A    between atoms: C_2  and  C_4 
REMARK    2  A    between atoms: C_4  and  C_5 
REMARK    3  A    between atoms: C_5  and  C_7 
REMARK    4  A    between atoms: C_7  and  C_8 
REMARK    5  A    between atoms: C_7  and  N_23 
REMARK    6  A    between atoms: C_8  and  C_10 
REMARK    7  A    between atoms: C_10  and  C_11 
REMARK    8  A    between atoms: C_10  and  C_14 
REMARK    9  A    between atoms: C_11  and  C_12 
REMARK   10  A    between atoms: C_12  and  O_13 
REMARK   11  A    between atoms: C_14  and  C_16 
REMARK   12  A    between atoms: C_28  and  C_29 
ROOT
HETATM    1  C   UNL     1      -1.646  -2.145  -0.752  1.00  0.00     0.216 C 
ENDROOT
BRANCH   1   2
HETATM    2  C   UNL     1      -1.622  -3.700  -0.990  1.00  0.00     0.159 C 
HETATM    3  O   UNL     1      -2.403  -4.229  -1.789  1.00  0.00    -0.295 OA
BRANCH   2   4
HETATM    4  C   UNL     1      -0.549  -4.541  -0.365  1.00  0.00     0.158 C 
BRANCH   4   5
HETATM    5  C   UNL     1      -0.586  -6.023  -0.572  1.00  0.00     0.130 C 
HETATM    6  C   UNL     1      -1.764  -6.784  -0.047  1.00  0.00     0.091 C 
HETATM    7  O   UNL     1       0.365  -6.610  -1.093  1.00  0.00    -0.298 OA
ENDBRANCH   4   5
ENDBRANCH   2   4
ENDBRANCH   1   2
BRANCH   1   8
HETATM    8  C   UNL     1      -3.126  -1.690  -0.757  1.00  0.00     0.164 C 
HETATM    9  O   UNL     1      -3.655  -1.504  -1.862  1.00  0.00    -0.295 OA
BRANCH   8  10
HETATM   10  C   UNL     1      -3.943  -1.584   0.528  1.00  0.00     0.134 C 
BRANCH  10  11
HETATM   11  C   UNL     1      -4.132  -2.992   1.134  1.00  0.00     0.046 C 
BRANCH  11  12
HETATM   12  C   UNL     1      -4.954  -3.965   0.286  1.00  0.00     0.165 C 
BRANCH  12  13
HETATM   13  O   UNL     1      -4.511  -5.293   0.571  1.00  0.00    -0.401 OA
HETATM   14  H   UNL     1      -5.079  -5.870   0.025  1.00  0.00     0.209 HD
ENDBRANCH  12  13
ENDBRANCH  11  12
ENDBRANCH  10  11
BRANCH  10  15
HETATM   15  C   UNL     1      -5.289  -0.851   0.314  1.00  0.00     0.174 C 
HETATM   16  O   UNL     1      -6.314  -1.528   0.219  1.00  0.00    -0.291 OA
BRANCH  15  17
HETATM   17  C   UNL     1      -5.291   0.679   0.174  1.00  0.00     0.060 A 
HETATM   18  C   UNL     1      -6.409   1.484   0.548  1.00  0.00     0.185 A 
HETATM   19  C   UNL     1      -6.256   2.875   0.307  1.00  0.00     0.056 A 
HETATM   20  O   UNL     1      -7.489   1.062   1.084  1.00  0.00    -0.287 OA
HETATM   21  C   UNL     1      -5.097   3.469  -0.202  1.00  0.00     0.004 A 
HETATM   22  C   UNL     1      -4.024   2.672  -0.527  1.00  0.00     0.001 A 
HETATM   23  C   UNL     1      -4.137   1.295  -0.362  1.00  0.00     0.019 A 
ENDBRANCH  15  17
ENDBRANCH  10  15
ENDBRANCH   8  10
ENDBRANCH   1   8
BRANCH   1  24
HETATM   24  N   UNL     1      -0.734  -1.587   0.275  1.00  0.00    -0.145 NA
HETATM   25  C   UNL     1      -0.728  -0.197   0.436  1.00  0.00     0.259 C 
HETATM   26  C   UNL     1       0.612   0.287  -0.021  1.00  0.00     0.100 C 
HETATM   27  O   UNL     1      -1.575   0.510   0.961  1.00  0.00    -0.272 OA
HETATM   28  N   UNL     1       1.205  -0.800  -0.564  1.00  0.00    -0.309 N 
HETATM   29  C   UNL     1       1.220   1.455   0.227  1.00  0.00     0.050 C 
HETATM   30  C   UNL     1       0.599  -1.872   0.023  1.00  0.00     0.309 C 
HETATM   31  H   UNL     1       2.176  -0.823  -0.810  1.00  0.00     0.170 HD
HETATM   32  O   UNL     1       1.262  -2.792   0.475  1.00  0.00    -0.253 OA
BRANCH  29  33
HETATM   33  C   UNL     1       2.606   1.757  -0.006  1.00  0.00     0.009 A 
HETATM   34  C   UNL     1       3.735   0.953   0.135  1.00  0.00     0.038 A 
HETATM   35  N   UNL     1       4.791   1.746  -0.258  1.00  0.00    -0.278 N 
HETATM   36  C   UNL     1       3.975  -0.447   0.598  1.00  0.00     0.071 C 
HETATM   37  N   UNL     1       4.442   3.014  -0.527  1.00  0.00    -0.184 NA
HETATM   38  C   UNL     1       6.169   1.339  -0.416  1.00  0.00     0.179 C 
HETATM   39  C   UNL     1       3.120   3.025  -0.355  1.00  0.00     0.152 A 
ENDBRANCH  29  33
ENDBRANCH   1  24
TORSDOF 12
