REMARK  2 active torsions:
REMARK  status: ('A' for Active; 'I' for Inactive)
REMARK    1  A    between atoms: C_4  and  C_5 
REMARK       I    between atoms: C_5  and  N_7 
REMARK    2  A    between atoms: N_7  and  C_8 
ROOT
HETATM    1  C   UNL     1      -0.975   2.206  -0.386  1.00  0.00     0.228 C 
HETATM    2  O   UNL     1      -0.683   3.225  -1.009  1.00  0.00    -0.273 OA
HETATM    3  N   UNL     1      -2.273   1.723  -0.256  1.00  0.00    -0.305 N 
HETATM    4  H   UNL     1      -2.393   0.808   0.151  1.00  0.00     0.171 HD
ENDROOT
BRANCH   1   5
HETATM    5  C   UNL     1       0.072   1.290   0.299  1.00  0.00     0.086 C 
HETATM    6  C   UNL     1      -0.031  -0.239   0.047  1.00  0.00     0.047 C 
HETATM    7  C   UNL     1       1.474  -0.202   0.024  1.00  0.00    -0.088 C 
HETATM    8  C   UNL     1       2.403  -1.147   0.174  1.00  0.00     0.014 C 
HETATM    9  C   UNL     1       1.528   1.289  -0.247  1.00  0.00     0.047 C 
ENDBRANCH   1   5
BRANCH   3  10
HETATM   10  C   UNL     1      -3.428   2.443  -0.448  1.00  0.00     0.355 C 
HETATM   11  O   UNL     1      -3.555   3.623  -0.736  1.00  0.00    -0.283 OA
ENDBRANCH   3  10
TORSDOF 2
