REMARK  3 active torsions:
REMARK  status: ('A' for Active; 'I' for Inactive)
REMARK    1  A    between atoms: N_4  and  C_5 
REMARK    2  A    between atoms: C_5  and  C_8 
REMARK    3  A    between atoms: N_6  and  O_7 
ROOT
HETATM    1  C   UNL     1      -3.364   1.450  -0.145  1.00  0.00     0.184 C 
HETATM    2  N   UNL     1      -3.459   2.755  -0.219  1.00  0.00    -0.115 NA
ENDROOT
BRANCH   1   3
HETATM    3  N   UNL     1      -2.130   0.754  -0.135  1.00  0.00    -0.227 N 
HETATM    4  C   UNL     1      -1.822  -0.521   0.299  1.00  0.00     0.144 A 
HETATM    5  C   UNL     1      -0.528  -0.734  -0.118  1.00  0.00     0.065 A 
HETATM    6  C   UNL     1       0.314  -1.941  -0.005  1.00  0.00     0.073 C 
HETATM    7  N   UNL     1      -0.060   0.396  -0.720  1.00  0.00    -0.163 NA
HETATM    8  N   UNL     1      -1.024   1.305  -0.704  1.00  0.00     0.011 NA
ENDBRANCH   1   3
BRANCH   1   9
HETATM    9  C   UNL     1      -4.685   0.722  -0.078  1.00  0.00     0.017 A 
HETATM   10  C   UNL     1      -5.798   1.386   0.457  1.00  0.00     0.057 A 
HETATM   11  C   UNL     1      -7.034   0.752   0.486  1.00  0.00     0.117 A 
HETATM   12  C   UNL     1      -7.190  -0.540  -0.000  1.00  0.00     0.042 A 
HETATM   13  F   UNL     1      -8.095   1.397   0.986  1.00  0.00    -0.206 F 
HETATM   14  C   UNL     1      -6.096  -1.204  -0.548  1.00  0.00     0.004 A 
HETATM   15  C   UNL     1      -4.851  -0.569  -0.605  1.00  0.00     0.015 A 
ENDBRANCH   1   9
BRANCH   2  16
HETATM   16  O   UNL     1      -2.268   3.500  -0.180  1.00  0.00    -0.264 OA
HETATM   17  H   UNL     1      -1.606   3.009  -0.713  1.00  0.00     0.247 HD
ENDBRANCH   2  16
TORSDOF 3
