REMARK  4 active torsions:
REMARK  status: ('A' for Active; 'I' for Inactive)
REMARK    1  A    between atoms: N_4  and  C_5 
REMARK    2  A    between atoms: C_8  and  N_9 
REMARK       I    between atoms: N_9  and  C_10 
REMARK    3  A    between atoms: C_10  and  O_12 
REMARK    4  A    between atoms: O_12  and  C_13 
ROOT
HETATM    1  C   UNL     1      -2.280  -0.183  -0.770  1.00  0.00     0.106 C 
HETATM    2  C   UNL     1      -2.330  -1.504  -1.555  1.00  0.00     0.029 C 
HETATM    3  C   UNL     1      -3.754  -1.932  -1.842  1.00  0.00     0.027 C 
HETATM    4  C   UNL     1      -4.431  -2.151  -0.491  1.00  0.00     0.086 C 
HETATM    5  C   UNL     1      -4.619  -0.856   0.282  1.00  0.00     0.027 C 
HETATM    6  C   UNL     1      -3.579   0.227  -0.034  1.00  0.00     0.029 C 
ENDROOT
BRANCH   4   7
HETATM    7  N   UNL     1      -5.634  -2.945  -0.624  1.00  0.00    -0.332 N 
HETATM    8  C   UNL     1      -5.576  -4.309  -0.738  1.00  0.00     0.361 C 
HETATM    9  O   UNL     1      -6.552  -5.030  -0.647  1.00  0.00    -0.238 OA
HETATM   10  H   UNL     1      -6.557  -2.553  -0.488  1.00  0.00     0.165 HD
BRANCH   8  11
HETATM   11  O   UNL     1      -4.292  -4.718  -0.889  1.00  0.00    -0.294 OA
BRANCH  11  12
HETATM   12  C   UNL     1      -3.681  -5.702   0.000  1.00  0.00     0.061 C 
HETATM   13  C   UNL     1      -4.232  -7.107  -0.430  1.00  0.00     0.046 C 
HETATM   14  C   UNL     1      -2.681  -5.702   0.000  1.00  0.00     0.046 C 
HETATM   15  C   UNL     1      -4.260  -5.504   1.449  1.00  0.00     0.046 C 
ENDBRANCH  11  12
ENDBRANCH   8  11
ENDBRANCH   4   7
BRANCH   1  16
HETATM   16  N   UNL     1      -1.064  -0.022   0.023  1.00  0.00    -0.278 N 
HETATM   17  C   UNL     1      -0.139  -0.965   0.378  1.00  0.00     0.136 C 
HETATM   18  C   UNL     1       1.040  -0.256   0.432  1.00  0.00     0.065 C 
HETATM   19  C   UNL     1       2.431  -0.750   0.461  1.00  0.00     0.073 C 
HETATM   20  N   UNL     1       0.763   1.079   0.353  1.00  0.00    -0.164 NA
HETATM   21  N   UNL     1      -0.539   1.215   0.146  1.00  0.00     0.005 NA
ENDBRANCH   1  16
TORSDOF 4
