REMARK  3 active torsions:
REMARK  status: ('A' for Active; 'I' for Inactive)
REMARK    1  A    between atoms: S_2  and  C_3 
REMARK       I    between atoms: C_3  and  N_5 
REMARK    2  A    between atoms: N_5  and  C_6 
REMARK    3  A    between atoms: C_9  and  N_10 
ROOT
HETATM    1  C   UNL     1      -0.087  -0.035  -0.618  1.00  0.00     0.035 C 
HETATM    2  C   UNL     1      -0.288  -1.346  -1.044  1.00  0.00     0.032 C 
HETATM    3  C   UNL     1      -1.502  -1.999  -0.828  1.00  0.00     0.032 C 
HETATM    4  C   UNL     1      -2.588  -1.343  -0.241  1.00  0.00     0.045 C 
HETATM    5  C   UNL     1      -2.422   0.015   0.073  1.00  0.00     0.032 C 
HETATM    6  C   UNL     1      -1.184   0.663  -0.113  1.00  0.00     0.032 C 
ENDROOT
BRANCH   4   7
HETATM    7  N   UNL     1      -3.806  -2.048  -0.013  1.00  0.00    -0.252 N 
HETATM    8  C   UNL     1      -5.043  -1.462   0.101  1.00  0.00     0.231 C 
HETATM    9  C   UNL     1      -6.078  -2.533   0.294  1.00  0.00     0.113 C 
HETATM   10  O   UNL     1      -5.344  -0.277   0.041  1.00  0.00    -0.273 OA
HETATM   11  C   UNL     1      -5.316  -3.829   0.204  1.00  0.00     0.113 C 
HETATM   12  C   UNL     1      -3.878  -3.416   0.144  1.00  0.00     0.231 C 
HETATM   13  O   UNL     1      -2.972  -4.231   0.252  1.00  0.00    -0.273 OA
ENDBRANCH   4   7
BRANCH   1  14
HETATM   14  N   UNL     1       1.166   0.612  -0.698  1.00  0.00    -0.320 N 
HETATM   15  C   UNL     1       2.448   0.091  -0.635  1.00  0.00     0.253 C 
HETATM   16  O   UNL     1       3.426   0.786  -0.882  1.00  0.00    -0.263 OA
HETATM   17  H   UNL     1       1.168   1.624  -0.689  1.00  0.00     0.169 HD
BRANCH  15  18
HETATM   18  S   UNL     1       2.598  -1.500   0.000  1.00  0.00    -0.213 SA
HETATM   19  C   UNL     1       3.464  -2.000   0.000  1.00  0.00     0.276 C 
ENDBRANCH  15  18
ENDBRANCH   1  14
TORSDOF 3
