REMARK  2 active torsions:
REMARK  status: ('A' for Active; 'I' for Inactive)
REMARK    1  A    between atoms: S_2  and  C_3 
REMARK    2  A    between atoms: C_3  and  C_5 
ROOT
HETATM    1  C   UNL     1      -0.596  -0.918   0.164  1.00  0.00     0.291 C 
HETATM    2  O   UNL     1      -0.413  -2.035  -0.313  1.00  0.00    -0.276 OA
ENDROOT
BRANCH   1   3
HETATM    3  S   UNL     1      -1.954  -0.666   1.279  1.00  0.00    -0.088 SA
HETATM    4  C   UNL     1      -3.034   0.272   0.175  1.00  0.00     0.099 C 
ENDBRANCH   1   3
BRANCH   1   5
HETATM    5  C   UNL     1       0.220   0.325  -0.183  1.00  0.00     0.462 C 
HETATM    6  F   UNL     1       0.335   1.206   0.852  1.00  0.00    -0.163 F 
HETATM    7  F   UNL     1      -0.343   1.027  -1.210  1.00  0.00    -0.163 F 
HETATM    8  F   UNL     1       1.492   0.035  -0.575  1.00  0.00    -0.163 F 
ENDBRANCH   1   5
TORSDOF 2
