REMARK  7 active torsions:
REMARK  status: ('A' for Active; 'I' for Inactive)
REMARK    1  A    between atoms: C_2  and  O_3 
REMARK    2  A    between atoms: C_2  and  C_4 
REMARK    3  A    between atoms: C_4  and  O_5 
REMARK    4  A    between atoms: C_4  and  C_6 
REMARK    5  A    between atoms: C_6  and  O_7 
REMARK    6  A    between atoms: C_6  and  C_15 
REMARK    7  A    between atoms: O_7  and  C_8 
ROOT
HETATM    1  C   UNL     1      -1.051   1.672  -0.161  1.00  0.00     0.201 C 
ENDROOT
BRANCH   1   2
HETATM    2  C   UNL     1      -1.255   3.192   0.066  1.00  0.00     0.249 C 
BRANCH   2   3
HETATM    3  C   UNL     1      -0.227   4.118  -0.556  1.00  0.00     0.172 C 
HETATM    4  O   UNL     1       0.393   3.999  -1.598  1.00  0.00    -0.648 OA
BRANCH   3   5
HETATM    5  O   UNL     1      -0.081   5.263   0.165  1.00  0.00    -0.774 OA
HETATM    6  H   UNL     1       0.485   5.807  -0.418  1.00  0.00     0.167 HD
ENDBRANCH   3   5
ENDBRANCH   2   3
BRANCH   2   7
HETATM    7  O   UNL     1      -2.491   3.689  -0.492  1.00  0.00    -0.382 OA
HETATM    8  H   UNL     1      -3.031   3.996   0.254  1.00  0.00     0.210 HD
ENDBRANCH   2   7
ENDBRANCH   1   2
BRANCH   1   9
HETATM    9  O   UNL     1      -1.572   1.028   1.043  1.00  0.00    -0.334 OA
BRANCH   9  10
HETATM   10  C   UNL     1      -1.969  -0.293   0.840  1.00  0.00     0.120 C 
HETATM   11  C   UNL     1      -3.271  -0.607   0.228  1.00  0.00     0.226 C 
HETATM   12  C   UNL     1      -3.570  -1.915   0.101  1.00  0.00     0.192 C 
HETATM   13  O   UNL     1      -3.965   0.399  -0.070  1.00  0.00    -0.283 OA
HETATM   14  O   UNL     1      -2.809  -2.995   0.472  1.00  0.00    -0.355 OA
HETATM   15  C   UNL     1      -1.481  -2.713   0.913  1.00  0.00     0.205 C 
HETATM   16  C   UNL     1      -1.172  -1.289   1.228  1.00  0.00     0.040 C 
ENDBRANCH   9  10
ENDBRANCH   1   9
BRANCH   1  17
HETATM   17  C   UNL     1       0.389   1.163  -0.331  1.00  0.00    -0.025 A 
HETATM   18  C   UNL     1       0.600   0.017  -1.126  1.00  0.00     0.029 A 
HETATM   19  C   UNL     1       1.849  -0.600  -1.173  1.00  0.00     0.011 A 
HETATM   20  C   UNL     1       2.929  -0.054  -0.486  1.00  0.00     0.019 A 
HETATM   21 BR   UNL     1       2.061  -2.229  -2.110  1.00  0.00    -0.051 Br
HETATM   22  C   UNL     1       2.747   1.099   0.276  1.00  0.00     0.002 A 
HETATM   23  C   UNL     1       1.482   1.686   0.378  1.00  0.00     0.010 A 
ENDBRANCH   1  17
TORSDOF 7
