REMARK  5 active torsions:
REMARK  status: ('A' for Active; 'I' for Inactive)
REMARK    1  A    between atoms: N_4  and  C_5 
REMARK    2  A    between atoms: C_5  and  C_6 
REMARK    3  A    between atoms: C_6  and  N_7 
REMARK    4  A    between atoms: C_9  and  N_10 
REMARK    5  A    between atoms: C_14  and  N_15 
ROOT
HETATM    1  N   UNL     1       5.760  -0.626  -0.324  1.00  0.00    -0.094 N 
HETATM    2  N   UNL     1       6.654   0.374  -0.171  1.00  0.00    -0.112 NA
HETATM    3  C   UNL     1       7.796  -0.328  -0.065  1.00  0.00     0.327 A 
HETATM    4  N   UNL     1       7.662  -1.695  -0.116  1.00  0.00    -0.018 NA
HETATM    5  C   UNL     1       6.376  -1.854  -0.304  1.00  0.00     0.720 A 
ENDROOT
BRANCH   1   6
HETATM    6  C   UNL     1       4.366  -0.316  -0.537  1.00  0.00     0.192 C 
BRANCH   6   7
HETATM    7  C   UNL     1       3.448  -0.882   0.534  1.00  0.00     0.168 C 
BRANCH   7   8
HETATM    8  N   UNL     1       2.091  -0.449   0.277  1.00  0.00    -0.282 N 
HETATM    9  C   UNL     1       1.505   0.718   0.658  1.00  0.00     0.136 A 
HETATM   10  C   UNL     1       0.340   0.755  -0.078  1.00  0.00     0.065 A 
HETATM   11  C   UNL     1      -0.683   1.810  -0.175  1.00  0.00     0.073 C 
HETATM   12  N   UNL     1       0.248  -0.392  -0.823  1.00  0.00    -0.164 NA
HETATM   13  N   UNL     1       1.332  -1.122  -0.600  1.00  0.00     0.004 NA
ENDBRANCH   7   8
ENDBRANCH   6   7
ENDBRANCH   1   6
BRANCH   5  14
HETATM   14  N   UNL     1       5.731  -3.023  -0.448  1.00  0.00    -0.231 N 
HETATM   15  H   UNL     1       4.931  -3.103  -1.069  1.00  0.00     0.174 HD
HETATM   16  H   UNL     1       6.337  -3.839  -0.526  1.00  0.00     0.174 HD
ENDBRANCH   5  14
BRANCH   3  17
HETATM   17  N   UNL     1       9.087   0.333   0.054  1.00  0.00    -0.073 N 
HETATM   18  O   UNL     1      10.090  -0.393   0.136  1.00  0.00    -0.529 OA
HETATM   19  O   UNL     1       9.107   1.575   0.060  1.00  0.00    -0.529 OA
ENDBRANCH   3  17
TORSDOF 5
