REMARK  1 active torsions:
REMARK  status: ('A' for Active; 'I' for Inactive)
REMARK    1  A    between atoms: N_4  and  C_5 
ROOT
HETATM    1  C   UNL     1       3.464   1.000   0.000  1.00  0.00     0.021 C 
HETATM    2  C   UNL     1       2.598   0.500   0.000  1.00  0.00     0.024 A 
HETATM    3  C   UNL     1       2.098   1.366   0.000  1.00  0.00     0.021 A 
HETATM    4  N   UNL     1       1.732   0.000   0.000  1.00  0.00     0.000 N 
HETATM    5  C   UNL     1       3.098  -0.366   0.000  1.00  0.00     0.361 A 
HETATM    6  F   UNL     1       2.525  -1.727  -0.153  1.00  0.00    -0.214 F 
HETATM    7  F   UNL     1       3.778  -0.676   1.235  1.00  0.00    -0.214 F 
HETATM    8  H   UNL     1       1.469  -0.811  -0.656  1.00  0.00     0.000 HD
ENDROOT
BRANCH   4   9
HETATM    9  C   UNL     1       0.128   0.256   0.437  1.00  0.00     0.092 C 
HETATM   10  C   UNL     1      -0.755  -0.904  -0.034  1.00  0.00     0.136 C 
HETATM   11  C   UNL     1      -2.231  -0.825   0.286  1.00  0.00     0.105 C 
HETATM   12  O   UNL     1      -0.278  -1.862  -0.636  1.00  0.00    -0.297 OA
HETATM   13  C   UNL     1      -2.646   0.583   0.649  1.00  0.00     0.175 C 
HETATM   14  O   UNL     1      -2.039   1.481  -0.253  1.00  0.00    -0.390 OA
HETATM   15  C   UNL     1      -0.619   1.550  -0.103  1.00  0.00     0.180 C 
ENDBRANCH   4   9
TORSDOF 1
