REMARK  6 active torsions:
REMARK  status: ('A' for Active; 'I' for Inactive)
REMARK    1  A    between atoms: S_2  and  C_3 
REMARK    2  A    between atoms: C_3  and  C_5 
REMARK    3  A    between atoms: C_5  and  N_6 
REMARK    4  A    between atoms: C_5  and  C_7 
REMARK    5  A    between atoms: C_7  and  C_8 
REMARK    6  A    between atoms: C_8  and  O_9 
ROOT
HETATM    1  C   UNL     1       0.636   1.068  -0.230  1.00  0.00     0.297 C 
ENDROOT
BRANCH   1   2
HETATM    2  C   UNL     1       1.905   1.655   0.449  1.00  0.00     0.188 C 
HETATM    3  O   UNL     1       1.846   2.592   1.240  1.00  0.00    -0.286 OA
BRANCH   2   4
HETATM    4  S   UNL     1       3.464   1.000   0.000  1.00  0.00    -0.230 SA
HETATM    5  C   UNL     1       3.464   0.000   0.000  1.00  0.00     0.270 C 
ENDBRANCH   2   4
ENDBRANCH   1   2
BRANCH   1   6
HETATM    6  N   UNL     1      -0.508   1.991   0.033  1.00  0.00     0.090 N 
HETATM    7  H   UNL     1      -0.443   2.271   1.022  1.00  0.00     0.313 HD
HETATM    8  H   UNL     1      -0.319   2.872  -0.455  1.00  0.00     0.313 HD
ENDBRANCH   1   6
BRANCH   1   9
HETATM    9  C   UNL     1       0.315  -0.345   0.289  1.00  0.00     0.070 C 
BRANCH   9  10
HETATM   10  C   UNL     1      -1.048  -0.880  -0.145  1.00  0.00     0.166 C 
BRANCH  10  11
HETATM   11  O   UNL     1      -2.090  -0.220   0.558  1.00  0.00    -0.401 OA
HETATM   12  H   UNL     1      -1.942   0.738   0.397  1.00  0.00     0.209 HD
ENDBRANCH  10  11
ENDBRANCH   9  10
ENDBRANCH   1   9
TORSDOF 6
