REMARK  3 active torsions:
REMARK  status: ('A' for Active; 'I' for Inactive)
REMARK    1  A    between atoms: N_4  and  C_5 
REMARK    2  A    between atoms: C_5  and  C_6 
REMARK       I    between atoms: C_6  and  N_8 
REMARK    3  A    between atoms: N_8  and  C_9 
ROOT
HETATM    1  C   UNL     1      -4.313   0.975   0.465  1.00  0.00     0.241 C 
HETATM    2  O   UNL     1      -5.074   1.234   1.396  1.00  0.00    -0.271 OA
HETATM    3  N   UNL     1      -4.498  -0.055  -0.453  1.00  0.00    -0.323 N 
HETATM    4  H   UNL     1      -3.682  -0.367  -0.970  1.00  0.00     0.169 HD
ENDROOT
BRANCH   3   5
HETATM    5  C   UNL     1      -5.562  -0.979  -0.365  1.00  0.00     0.073 A 
HETATM    6  C   UNL     1      -6.876  -0.615  -0.041  1.00  0.00     0.144 A 
HETATM    7  C   UNL     1      -7.875  -1.574   0.096  1.00  0.00     0.068 A 
HETATM    8  F   UNL     1      -7.226   0.675   0.059  1.00  0.00    -0.204 F 
HETATM    9  C   UNL     1      -7.562  -2.916  -0.095  1.00  0.00     0.037 A 
HETATM   10  C   UNL     1      -6.269  -3.295  -0.458  1.00  0.00     0.026 A 
HETATM   11 CL   UNL     1      -8.776  -4.116   0.110  1.00  0.00    -0.084 Cl
HETATM   12  C   UNL     1      -5.274  -2.326  -0.616  1.00  0.00     0.034 A 
ENDBRANCH   3   5
BRANCH   1  13
HETATM   13  C   UNL     1      -3.044   1.787   0.277  1.00  0.00     0.248 C 
BRANCH  13  14
HETATM   14  N   UNL     1      -1.872   0.971   0.047  1.00  0.00    -0.274 N 
HETATM   15  C   UNL     1      -1.536  -0.231   0.602  1.00  0.00     0.136 A 
HETATM   16  C   UNL     1      -0.479  -0.667  -0.166  1.00  0.00     0.065 A 
HETATM   17  C   UNL     1       0.247  -1.951  -0.146  1.00  0.00     0.073 C 
HETATM   18  N   UNL     1      -0.171   0.296  -1.088  1.00  0.00    -0.164 NA
HETATM   19  N   UNL     1      -1.028   1.296  -0.947  1.00  0.00     0.005 NA
ENDBRANCH  13  14
ENDBRANCH   1  13
TORSDOF 3
