REMARK  3 active torsions:
REMARK  status: ('A' for Active; 'I' for Inactive)
REMARK    1  A    between atoms: S_2  and  C_3 
REMARK    2  A    between atoms: C_3  and  N_5 
REMARK    3  A    between atoms: N_5  and  C_6 
ROOT
HETATM    1  C   UNL     1       0.385   0.967  -0.865  1.00  0.00     0.042 A 
HETATM    2  C   UNL     1       1.604   1.679  -0.931  1.00  0.00     0.072 A 
HETATM    3  C   UNL     1       2.672   1.297  -0.117  1.00  0.00     0.118 A 
HETATM    4  F   UNL     1       3.826   1.964  -0.188  1.00  0.00    -0.206 F 
HETATM    5  C   UNL     1       2.552   0.213   0.749  1.00  0.00     0.043 A 
HETATM    6  C   UNL     1       1.336  -0.478   0.832  1.00  0.00     0.012 A 
HETATM    7  C   UNL     1       0.255  -0.126   0.026  1.00  0.00    -0.035 A 
HETATM    8  C   UNL     1      -0.893  -1.100   0.141  1.00  0.00     0.050 C 
ENDROOT
BRANCH   1   9
HETATM    9  N   UNL     1      -0.615   1.359  -1.771  1.00  0.00    -0.343 N 
HETATM   10  H   UNL     1      -0.323   1.796  -2.637  1.00  0.00     0.167 HD
BRANCH   9  11
HETATM   11  C   UNL     1      -1.980   1.207  -1.634  1.00  0.00     0.107 C 
HETATM   12  S   UNL     1      -2.954   1.117  -2.998  1.00  0.00    -0.056 SA
BRANCH  11  13
HETATM   13  S   UNL     1      -2.598   1.500   0.000  1.00  0.00    -0.239 SA
HETATM   14  C   UNL     1      -2.598   2.500   0.000  1.00  0.00     0.268 C 
ENDBRANCH  11  13
ENDBRANCH   9  11
ENDBRANCH   1   9
TORSDOF 3
