REMARK  2 active torsions:
REMARK  status: ('A' for Active; 'I' for Inactive)
REMARK    1  A    between atoms: S_2  and  C_3 
REMARK       I    between atoms: C_3  and  N_5 
REMARK    2  A    between atoms: N_5  and  C_6 
ROOT
HETATM    1  C   UNL     1       0.978   0.188  -0.000  1.00  0.00     0.075 A 
HETATM    2  C   UNL     1       2.014   1.120   0.000  1.00  0.00     0.052 A 
HETATM    3  C   UNL     1       3.322   0.682   0.000  1.00  0.00     0.013 A 
HETATM    4 BR   UNL     1       4.708   1.959   0.000  1.00  0.00    -0.051 Br
HETATM    5  C   UNL     1       3.592  -0.683   0.000  1.00  0.00     0.022 A 
HETATM    6  C   UNL     1       2.546  -1.611   0.000  1.00  0.00     0.046 A 
HETATM    7  C   UNL     1       1.234  -1.178  -0.000  1.00  0.00     0.143 A 
HETATM    8  F   UNL     1       0.265  -2.096  -0.000  1.00  0.00    -0.204 F 
ENDROOT
BRANCH   1   9
HETATM    9  N   UNL     1      -0.271   0.764  -0.000  1.00  0.00    -0.315 N 
HETATM   10  C   UNL     1      -1.498   0.232  -0.000  1.00  0.00     0.283 C 
HETATM   11  O   UNL     1      -1.860  -0.930   0.000  1.00  0.00    -0.260 OA
HETATM   12  H   UNL     1      -0.264   1.765  -0.000  1.00  0.00     0.170 HD
BRANCH  10  13
HETATM   13  S   UNL     1      -2.598   1.500   0.000  1.00  0.00    -0.073 SA
HETATM   14  C   UNL     1      -2.598   2.500   0.000  1.00  0.00     0.100 C 
ENDBRANCH  10  13
ENDBRANCH   1   9
TORSDOF 2
