REMARK  1 active torsions:
REMARK  status: ('A' for Active; 'I' for Inactive)
REMARK    1  A    between atoms: N_4  and  C_5 
ROOT
HETATM    1  C   UNL     1      -2.957  -2.008   0.036  1.00  0.00     0.075 A 
HETATM    2  C   UNL     1      -2.981  -3.420   0.023  1.00  0.00     0.033 A 
HETATM    3  C   UNL     1      -4.187  -4.127   0.006  1.00  0.00     0.002 A 
HETATM    4  C   UNL     1      -5.393  -3.442   0.002  1.00  0.00     0.002 A 
HETATM    5  C   UNL     1      -5.391  -2.050   0.013  1.00  0.00     0.026 A 
HETATM    6  C   UNL     1      -4.187  -1.323   0.030  1.00  0.00     0.062 A 
HETATM    7 CL   UNL     1      -4.393   0.395   0.027  1.00  0.00    -0.082 Cl
ENDROOT
BRANCH   1   8
HETATM    8  N   UNL     1      -1.689  -1.352   0.049  1.00  0.00    -0.246 N 
HETATM    9  C   UNL     1      -0.430  -1.927   0.014  1.00  0.00     0.142 A 
HETATM   10  C   UNL     1       0.455  -0.874   0.003  1.00  0.00     0.065 A 
HETATM   11  C   UNL     1       1.928  -0.881  -0.063  1.00  0.00     0.073 C 
HETATM   12  N   UNL     1      -0.245   0.290   0.062  1.00  0.00    -0.163 NA
HETATM   13  N   UNL     1      -1.536  -0.009   0.093  1.00  0.00     0.009 NA
ENDBRANCH   1   8
TORSDOF 1
