REMARK  9 active torsions:
REMARK  status: ('A' for Active; 'I' for Inactive)
REMARK    1  A    between atoms: O_2  and  C_3 
REMARK    2  A    between atoms: C_7  and  C_8 
REMARK    3  A    between atoms: C_8  and  O_9 
REMARK    4  A    between atoms: C_8  and  C_10 
REMARK    5  A    between atoms: C_10  and  O_11 
REMARK    6  A    between atoms: C_10  and  C_19 
REMARK    7  A    between atoms: O_11  and  C_12 
REMARK    8  A    between atoms: C_19  and  O_21 
REMARK    9  A    between atoms: C_22  and  O_23 
ROOT
HETATM    1  C   UNL     1      -1.010  -0.125  -0.257  1.00  0.00     0.194 C 
ENDROOT
BRANCH   1   2
HETATM    2  C   UNL     1       0.213  -0.880  -0.800  1.00  0.00     0.010 C 
HETATM    3  C   UNL     1       0.152  -1.975  -1.669  1.00  0.00     0.013 C 
HETATM    4  C   UNL     1       1.289  -2.743  -1.962  1.00  0.00     0.003 C 
HETATM    5  C   UNL     1       2.522  -2.423  -1.402  1.00  0.00     0.039 C 
HETATM    6  C   UNL     1       2.638  -1.258  -0.661  1.00  0.00     0.102 C 
HETATM    7  C   UNL     1       1.518  -0.443  -0.457  1.00  0.00     0.110 C 
BRANCH   6   8
HETATM    8  O   UNL     1       3.805  -1.012   0.013  1.00  0.00    -0.353 OA
HETATM    9  C   UNL     1       4.691  -0.192  -0.736  1.00  0.00     0.210 C 
ENDBRANCH   6   8
BRANCH   7  10
HETATM   10  O   UNL     1       1.733   0.773   0.164  1.00  0.00    -0.352 OA
HETATM   11  C   UNL     1       1.405   1.878  -0.697  1.00  0.00     0.210 C 
ENDBRANCH   7  10
ENDBRANCH   1   2
BRANCH   1  12
HETATM   12  O   UNL     1      -0.666   0.330   1.108  1.00  0.00    -0.388 OA
HETATM   13  H   UNL     1       0.295   0.471   1.165  1.00  0.00     0.210 HD
ENDBRANCH   1  12
BRANCH   1  14
HETATM   14  C   UNL     1      -2.598  -0.500   0.000  1.00  0.00     0.259 C 
BRANCH  14  15
HETATM   15  O   UNL     1      -3.549  -0.381  -1.223  1.00  0.00    -0.326 OA
BRANCH  15  16
HETATM   16  C   UNL     1      -4.892  -0.375  -0.762  1.00  0.00     0.141 C 
HETATM   17  C   UNL     1      -5.488   0.842  -0.190  1.00  0.00     0.205 C 
HETATM   18  C   UNL     1      -6.775   0.733   0.174  1.00  0.00     0.057 C 
HETATM   19  O   UNL     1      -4.722   1.840  -0.114  1.00  0.00    -0.286 OA
HETATM   20  C   UNL     1      -7.589  -0.520   0.046  1.00  0.00     0.206 C 
HETATM   21  O   UNL     1      -6.893  -1.700  -0.380  1.00  0.00    -0.356 OA
HETATM   22  C   UNL     1      -5.608  -1.514  -0.815  1.00  0.00     0.176 C 
ENDBRANCH  15  16
ENDBRANCH  14  15
BRANCH  14  23
HETATM   23  C   UNL     1      -2.598  -1.500   0.000  1.00  0.00     0.173 C 
HETATM   24  O   UNL     1      -2.485  -2.374  -0.856  1.00  0.00    -0.648 OA
BRANCH  23  25
HETATM   25  O   UNL     1      -2.757  -2.013   1.282  1.00  0.00    -0.774 OA
HETATM   26  H   UNL     1      -2.923  -1.309   1.949  1.00  0.00     0.167 HD
ENDBRANCH  23  25
ENDBRANCH  14  23
ENDBRANCH   1  14
TORSDOF 9
