REMARK  3 active torsions:
REMARK  status: ('A' for Active; 'I' for Inactive)
REMARK    1  A    between atoms: C_2  and  C_3 
REMARK    2  A    between atoms: C_3  and  C_5 
REMARK    3  A    between atoms: C_5  and  S_7 
ROOT
HETATM    1  C   UNL     1       2.951  -0.532   0.437  1.00  0.00     0.062 C 
HETATM    2  C   UNL     1       4.122   0.304  -0.087  1.00  0.00     0.018 C 
ENDROOT
BRANCH   1   3
HETATM    3  C   UNL     1       2.904  -1.894  -0.268  1.00  0.00     0.008 C 
HETATM    4  C   UNL     1       1.762  -2.794   0.190  1.00  0.00     0.006 C 
ENDBRANCH   1   3
BRANCH   1   5
HETATM    5  C   UNL     1       1.683   0.317   0.428  1.00  0.00     0.189 C 
HETATM    6  O   UNL     1       1.376   1.019   1.383  1.00  0.00    -0.285 OA
BRANCH   5   7
HETATM    7  S   UNL     1       0.720   0.342  -1.047  1.00  0.00    -0.097 SA
HETATM    8  C   UNL     1      -0.881   0.730  -0.298  1.00  0.00     0.098 C 
ENDBRANCH   5   7
ENDBRANCH   1   5
TORSDOF 3
