REMARK  4 active torsions:
REMARK  status: ('A' for Active; 'I' for Inactive)
REMARK    1  A    between atoms: S_2  and  C_3 
REMARK    2  A    between atoms: C_3  and  C_5 
REMARK    3  A    between atoms: C_5  and  C_7 
REMARK    4  A    between atoms: C_7  and  C_8 
ROOT
HETATM    1  C   UNL     1       2.598   0.500   0.000  1.00  0.00     0.068 C 
HETATM    2  C   UNL     1       2.598   1.500   0.000  1.00  0.00     0.019 C 
ENDROOT
BRANCH   1   3
HETATM    3  C   UNL     1       3.878  -0.328   0.375  1.00  0.00     0.189 C 
HETATM    4  O   UNL     1       4.965  -0.130  -0.163  1.00  0.00    -0.285 OA
BRANCH   3   5
HETATM    5  S   UNL     1       3.737  -1.638   1.551  1.00  0.00    -0.097 SA
HETATM    6  C   UNL     1       3.235  -2.963   0.424  1.00  0.00     0.098 C 
ENDBRANCH   3   5
ENDBRANCH   1   3
BRANCH   1   7
HETATM    7  C   UNL     1       1.295  -0.049   0.709  1.00  0.00     0.083 C 
BRANCH   7   8
HETATM    8  C   UNL     1       0.013   0.701   0.361  1.00  0.00     0.353 C 
HETATM    9  F   UNL     1       0.026   1.931   0.930  1.00  0.00    -0.214 F 
HETATM   10  F   UNL     1      -1.044   0.040   0.898  1.00  0.00    -0.214 F 
ENDBRANCH   7   8
ENDBRANCH   1   7
TORSDOF 4
