REMARK  2 active torsions:
REMARK  status: ('A' for Active; 'I' for Inactive)
REMARK    1  A    between atoms: N_4  and  C_5 
REMARK    2  A    between atoms: C_9  and  O_10 
ROOT
HETATM    1  C   UNL     1      -3.010  -1.952   0.000  1.00  0.00     0.099 A 
HETATM    2  C   UNL     1      -3.056  -3.341   0.000  1.00  0.00     0.174 A 
HETATM    3  N   UNL     1      -4.205  -4.048  -0.000  1.00  0.00    -0.158 NA
HETATM    4  N   UNL     1      -5.386  -3.392  -0.000  1.00  0.00    -0.123 NA
HETATM    5  C   UNL     1      -5.391  -2.046  -0.000  1.00  0.00     0.208 A 
HETATM    6  C   UNL     1      -4.232  -1.276  -0.000  1.00  0.00     0.118 A 
HETATM    7 CL   UNL     1      -4.444   0.443   0.000  1.00  0.00    -0.077 Cl
ENDROOT
BRANCH   1   8
HETATM    8  N   UNL     1      -1.748  -1.316   0.000  1.00  0.00    -0.244 N 
HETATM    9  C   UNL     1      -0.500  -1.902   0.000  1.00  0.00     0.142 A 
HETATM   10  C   UNL     1       0.400  -0.858   0.000  1.00  0.00     0.065 A 
HETATM   11  C   UNL     1       1.841  -0.850  -0.000  1.00  0.00     0.073 C 
HETATM   12  N   UNL     1      -0.302   0.312   0.000  1.00  0.00    -0.163 NA
HETATM   13  N   UNL     1      -1.592   0.023   0.000  1.00  0.00     0.010 NA
ENDBRANCH   1   8
BRANCH   5  14
HETATM   14  O   UNL     1      -6.635  -1.472  -0.000  1.00  0.00    -0.342 OA
HETATM   15  H   UNL     1      -6.494  -0.509   0.000  1.00  0.00     0.219 HD
ENDBRANCH   5  14
TORSDOF 2
