REMARK  7 active torsions:
REMARK  status: ('A' for Active; 'I' for Inactive)
REMARK    1  A    between atoms: N_1  and  C_2 
REMARK    2  A    between atoms: C_2  and  C_3 
REMARK    3  A    between atoms: C_3  and  C_4 
REMARK    4  A    between atoms: C_4  and  O_5 
REMARK    5  A    between atoms: C_4  and  C_8 
REMARK    6  A    between atoms: O_5  and  C_6 
REMARK    7  A    between atoms: C_8  and  O_10 
ROOT
HETATM    1  C   UNL     1      -1.131   1.522   0.153  1.00  0.00     0.230 C 
ENDROOT
BRANCH   1   2
HETATM    2  C   UNL     1       0.023   2.355  -0.415  1.00  0.00     0.073 C 
BRANCH   2   3
HETATM    3  C   UNL     1       1.414   2.073   0.148  1.00  0.00     0.269 C 
BRANCH   3   4
HETATM    4  N   UNL     1       1.959   0.798  -0.294  1.00  0.00     0.078 N 
HETATM    5  H   UNL     1       1.513   0.038   0.226  1.00  0.00     0.312 HD
HETATM    6  H   UNL     1       2.948   0.748  -0.048  1.00  0.00     0.312 HD
ENDBRANCH   3   4
ENDBRANCH   2   3
ENDBRANCH   1   2
BRANCH   1   7
HETATM    7  O   UNL     1      -2.336   2.168  -0.322  1.00  0.00    -0.312 OA
BRANCH   7   8
HETATM    8  C   UNL     1      -3.525   1.640   0.044  1.00  0.00     0.399 C 
HETATM    9  O   UNL     1      -4.603   2.133  -0.247  1.00  0.00    -0.276 OA
ENDBRANCH   7   8
ENDBRANCH   1   7
BRANCH   1  10
HETATM   10  C   UNL     1      -1.066   0.060  -0.291  1.00  0.00     0.170 C 
HETATM   11  O   UNL     1      -1.716  -0.462  -1.183  1.00  0.00    -0.648 OA
BRANCH  10  12
HETATM   12  O   UNL     1      -0.279  -0.705   0.497  1.00  0.00    -0.774 OA
HETATM   13  H   UNL     1      -0.372  -1.601   0.103  1.00  0.00     0.167 HD
ENDBRANCH  10  12
ENDBRANCH   1  10
TORSDOF 7
