REMARK  4 active torsions:
REMARK  status: ('A' for Active; 'I' for Inactive)
REMARK    1  A    between atoms: N_4  and  C_5 
REMARK    2  A    between atoms: C_10  and  C_11 
REMARK    3  A    between atoms: C_11  and  O_12 
REMARK    4  A    between atoms: O_12  and  C_13 
ROOT
HETATM    1  C   UNL     1      -4.254   2.621  -0.175  1.00  0.00     0.062 A 
HETATM    2  C   UNL     1      -5.143   3.662  -0.506  1.00  0.00     0.032 A 
HETATM    3  C   UNL     1      -4.690   4.977  -0.628  1.00  0.00     0.002 A 
HETATM    4  C   UNL     1      -3.347   5.270  -0.427  1.00  0.00     0.001 A 
HETATM    5  C   UNL     1      -2.447   4.245  -0.134  1.00  0.00     0.012 A 
HETATM    6  C   UNL     1      -2.871   2.906  -0.026  1.00  0.00    -0.006 A 
ENDROOT
BRANCH   6   7
HETATM    7  C   UNL     1      -1.837   1.831   0.255  1.00  0.00     0.209 C 
BRANCH   7   8
HETATM    8  O   UNL     1      -0.519   2.193  -0.165  1.00  0.00    -0.381 OA
BRANCH   8   9
HETATM    9  C   UNL     1       0.496   1.351   0.397  1.00  0.00     0.130 C 
HETATM   10  C   UNL     1       1.785   1.513  -0.469  1.00  0.00     0.041 C 
HETATM   11  C   UNL     1       2.060   0.071  -0.949  1.00  0.00     0.011 C 
HETATM   12  C   UNL     1       2.451  -0.752   0.257  1.00  0.00    -0.025 C 
HETATM   13  C   UNL     1       0.638  -0.459  -1.150  1.00  0.00     0.019 C 
HETATM   14  C   UNL     1       1.353  -0.902   1.010  1.00  0.00    -0.023 C 
HETATM   15  C   UNL     1       0.229  -0.181   0.299  1.00  0.00     0.037 C 
ENDBRANCH   8   9
ENDBRANCH   7   8
ENDBRANCH   6   7
BRANCH   1  16
HETATM   16  N   UNL     1      -4.791   1.315   0.036  1.00  0.00    -0.247 N 
HETATM   17  C   UNL     1      -6.038   0.828  -0.303  1.00  0.00     0.142 A 
HETATM   18  C   UNL     1      -6.069  -0.458   0.186  1.00  0.00     0.065 A 
HETATM   19  C   UNL     1      -7.139  -1.471   0.136  1.00  0.00     0.073 C 
HETATM   20  N   UNL     1      -4.881  -0.731   0.793  1.00  0.00    -0.163 NA
HETATM   21  N   UNL     1      -4.117   0.345   0.701  1.00  0.00     0.009 NA
ENDBRANCH   1  16
TORSDOF 4
