REMARK  3 active torsions:
REMARK  status: ('A' for Active; 'I' for Inactive)
REMARK    1  A    between atoms: C_3  and  N_4 
REMARK    2  A    between atoms: C_3  and  C_7 
REMARK    3  A    between atoms: N_4  and  C_5 
ROOT
HETATM    1  N   UNL     1       3.912  -1.011   0.652  1.00  0.00    -0.195 NA
HETATM    2  C   UNL     1       3.063  -0.358   0.199  1.00  0.00     0.085 C 
HETATM    3  C   UNL     1       2.007   0.505  -0.368  1.00  0.00     0.195 C 
ENDROOT
BRANCH   3   4
HETATM    4  N   UNL     1       1.787   1.706   0.408  1.00  0.00    -0.351 N 
HETATM    5  H   UNL     1       2.491   1.995   1.081  1.00  0.00     0.163 HD
BRANCH   4   6
HETATM    6  C   UNL     1       1.011   2.731  -0.044  1.00  0.00     0.349 C 
HETATM    7  O   UNL     1       1.061   3.858   0.425  1.00  0.00    -0.284 OA
ENDBRANCH   4   6
ENDBRANCH   3   4
BRANCH   3   8
HETATM    8  C   UNL     1       0.757  -0.340  -0.500  1.00  0.00     0.022 A 
HETATM    9  C   UNL     1      -0.424  -0.197   0.448  1.00  0.00     0.008 A 
HETATM   10  C   UNL     1       0.361  -1.471   0.436  1.00  0.00     0.008 A 
ENDBRANCH   3   8
TORSDOF 3
