REMARK  4 active torsions:
REMARK  status: ('A' for Active; 'I' for Inactive)
REMARK    1  A    between atoms: C_2  and  C_3 
REMARK    2  A    between atoms: C_3  and  S_4 
REMARK    3  A    between atoms: C_3  and  C_7 
REMARK    4  A    between atoms: S_4  and  C_5 
ROOT
HETATM    1  C   UNL     1      -0.143  -0.373  -0.035  1.00  0.00    -0.005 A 
HETATM    2  C   UNL     1      -0.341  -1.742  -0.284  1.00  0.00     0.011 A 
HETATM    3  C   UNL     1      -1.623  -2.313  -0.313  1.00  0.00     0.001 A 
HETATM    4  C   UNL     1      -2.751  -1.523  -0.131  1.00  0.00     0.003 A 
HETATM    5  C   UNL     1      -2.594  -0.162   0.098  1.00  0.00     0.043 A 
HETATM    6  C   UNL     1      -1.312   0.389   0.167  1.00  0.00     0.123 A 
HETATM    7  F   UNL     1      -1.223   1.696   0.464  1.00  0.00    -0.206 F 
ENDROOT
BRANCH   1   8
HETATM    8  C   UNL     1       1.230   0.309   0.127  1.00  0.00     0.090 C 
BRANCH   8   9
HETATM    9  C   UNL     1       2.598  -0.500   0.000  1.00  0.00     0.016 C 
HETATM   10  C   UNL     1       2.598  -1.500   0.000  1.00  0.00     0.006 C 
ENDBRANCH   8   9
BRANCH   8  11
HETATM   11  S   UNL     1       1.342   1.781  -1.022  1.00  0.00    -0.092 SA
BRANCH  11  12
HETATM   12  C   UNL     1       2.443   2.796  -0.100  1.00  0.00     0.304 C 
HETATM   13  O   UNL     1       3.338   2.363   0.610  1.00  0.00    -0.295 OA
ENDBRANCH  11  12
ENDBRANCH   8  11
ENDBRANCH   1   8
TORSDOF 4
