REMARK  4 active torsions:
REMARK  status: ('A' for Active; 'I' for Inactive)
REMARK    1  A    between atoms: N_4  and  C_5 
REMARK    2  A    between atoms: C_5  and  C_6 
REMARK    3  A    between atoms: C_5  and  C_9 
REMARK    4  A    between atoms: C_6  and  O_8 
ROOT
HETATM    1  C   UNL     1      -3.213   1.631  -0.365  1.00  0.00     0.236 C 
ENDROOT
BRANCH   1   2
HETATM    2  N   UNL     1      -1.971   0.862  -0.254  1.00  0.00    -0.264 N 
HETATM    3  C   UNL     1      -1.716  -0.346   0.334  1.00  0.00     0.137 A 
HETATM    4  C   UNL     1      -0.476  -0.701  -0.154  1.00  0.00     0.065 A 
HETATM    5  C   UNL     1       0.272  -1.966  -0.031  1.00  0.00     0.073 C 
HETATM    6  N   UNL     1       0.027   0.334  -0.893  1.00  0.00    -0.164 NA
HETATM    7  N   UNL     1      -0.888   1.291  -0.939  1.00  0.00     0.005 NA
ENDBRANCH   1   2
BRANCH   1   8
HETATM    8  C   UNL     1      -3.104   2.844   0.535  1.00  0.00     0.170 C 
HETATM    9  O   UNL     1      -2.836   2.867   1.726  1.00  0.00    -0.648 OA
BRANCH   8  10
HETATM   10  O   UNL     1      -3.425   4.000  -0.099  1.00  0.00    -0.775 OA
HETATM   11  H   UNL     1      -3.296   4.699   0.581  1.00  0.00     0.167 HD
ENDBRANCH   8  10
ENDBRANCH   1   8
BRANCH   1  12
HETATM   12  C   UNL     1      -4.494   0.806  -0.194  1.00  0.00    -0.024 A 
HETATM   13  C   UNL     1      -5.587   1.272   0.561  1.00  0.00     0.010 A 
HETATM   14  C   UNL     1      -6.767   0.528   0.657  1.00  0.00     0.001 A 
HETATM   15  C   UNL     1      -6.879  -0.696   0.006  1.00  0.00     0.000 A 
HETATM   16  C   UNL     1      -5.821  -1.169  -0.762  1.00  0.00     0.001 A 
HETATM   17  C   UNL     1      -4.651  -0.416  -0.880  1.00  0.00     0.010 A 
ENDBRANCH   1  12
TORSDOF 4
