REMARK  13 active torsions:
REMARK  status: ('A' for Active; 'I' for Inactive)
REMARK    1  A    between atoms: C_2  and  C_4 
REMARK    2  A    between atoms: C_4  and  C_5 
REMARK    3  A    between atoms: C_5  and  C_7 
REMARK    4  A    between atoms: C_7  and  O_8 
REMARK    5  A    between atoms: C_7  and  C_9 
REMARK    6  A    between atoms: C_11  and  C_12 
REMARK    7  A    between atoms: C_12  and  C_13 
REMARK    8  A    between atoms: C_13  and  O_14 
REMARK    9  A    between atoms: C_15  and  C_17 
REMARK   10  A    between atoms: C_22  and  O_23 
REMARK   11  A    between atoms: O_23  and  C_24 
REMARK       I    between atoms: C_24  and  N_26 
REMARK   12  A    between atoms: N_26  and  C_27 
REMARK   13  A    between atoms: C_33  and  N_34 
ROOT
HETATM    1  C   UNL     1       3.688  -2.504   0.809  1.00  0.00     0.044 C 
HETATM    2  C   UNL     1       4.542  -3.013   1.805  1.00  0.00     0.018 C 
HETATM    3  C   UNL     1       5.861  -2.543   1.949  1.00  0.00     0.001 C 
HETATM    4  C   UNL     1       6.340  -1.523   1.130  1.00  0.00     0.003 C 
HETATM    5  C   UNL     1       5.469  -0.889   0.255  1.00  0.00     0.038 C 
HETATM    6  C   UNL     1       4.142  -1.309   0.178  1.00  0.00     0.094 C 
ENDROOT
BRANCH   1   7
HETATM    7  C   UNL     1       2.598  -3.500   0.000  1.00  0.00     0.172 A 
HETATM    8  C   UNL     1       2.598  -4.500   0.000  1.00  0.00     0.218 A 
HETATM    9  C   UNL     1       3.464  -5.000   0.000  1.00  0.00     0.169 A 
HETATM   10  O   UNL     1       4.528  -4.500  -0.464  1.00  0.00    -0.294 OA
HETATM   11  O   UNL     1       2.200  -2.965  -1.056  1.00  0.00    -0.292 OA
BRANCH   8  12
HETATM   12  C   UNL     1       1.717  -4.626   1.539  1.00  0.00     0.047 C 
BRANCH  12  13
HETATM   13  C   UNL     1       0.622  -5.715   1.579  1.00  0.00     0.165 C 
BRANCH  13  14
HETATM   14  O   UNL     1      -0.475  -5.207   2.329  1.00  0.00    -0.401 OA
HETATM   15  H   UNL     1      -1.243  -5.788   2.188  1.00  0.00     0.209 HD
ENDBRANCH  13  14
ENDBRANCH  12  13
ENDBRANCH   8  12
BRANCH   9  16
HETATM   16  C   UNL     1       3.464  -6.000   0.000  1.00  0.00     0.199 C 
BRANCH  16  17
HETATM   17  C   UNL     1       4.901  -6.808  -0.379  1.00  0.00     0.161 C 
HETATM   18  O   UNL     1       6.001  -6.508   0.069  1.00  0.00    -0.295 OA
BRANCH  17  19
HETATM   19  C   UNL     1       4.673  -8.257  -0.986  1.00  0.00     0.158 C 
BRANCH  19  20
HETATM   20  C   UNL     1       3.585  -9.095  -0.236  1.00  0.00     0.130 C 
HETATM   21  C   UNL     1       2.085  -8.769  -0.418  1.00  0.00     0.091 C 
HETATM   22  O   UNL     1       3.907  -9.987   0.551  1.00  0.00    -0.298 OA
ENDBRANCH  19  20
ENDBRANCH  17  19
ENDBRANCH  16  17
BRANCH  16  23
HETATM   23  O   UNL     1       3.844  -6.153   1.619  1.00  0.00    -0.389 OA
HETATM   24  H   UNL     1       4.828  -6.168   1.668  1.00  0.00     0.210 HD
ENDBRANCH  16  23
ENDBRANCH   9  16
ENDBRANCH   1   7
BRANCH   6  25
HETATM   25  O   UNL     1       3.233  -0.465  -0.467  1.00  0.00    -0.260 OA
BRANCH  25  26
HETATM   26  C   UNL     1       3.160   0.740   0.224  1.00  0.00     0.370 C 
HETATM   27  O   UNL     1       4.095   1.524   0.385  1.00  0.00    -0.238 OA
HETATM   28  N   UNL     1       1.892   1.120   0.622  1.00  0.00    -0.300 N 
HETATM   29  H   UNL     1       1.814   2.130   0.716  1.00  0.00     0.171 HD
BRANCH  28  30
HETATM   30  C   UNL     1       0.738   0.356   0.382  1.00  0.00     0.070 C 
HETATM   31  C   UNL     1      -0.421   0.926  -0.134  1.00  0.00     0.129 C 
HETATM   32  C   UNL     1      -1.383   0.076  -0.635  1.00  0.00     0.039 C 
HETATM   33  C   UNL     1      -1.131  -1.306  -0.604  1.00  0.00     0.009 C 
HETATM   34  C   UNL     1       0.000  -2.000   0.000  1.00  0.00    -0.060 C 
HETATM   35  C   UNL     1       0.812  -1.048   0.592  1.00  0.00     0.039 C 
HETATM   36  C   UNL     1       0.000  -3.000   0.000  1.00  0.00     0.048 C 
BRANCH  31  37
HETATM   37  N   UNL     1      -0.647   2.374  -0.192  1.00  0.00    -0.113 N 
HETATM   38  O   UNL     1       0.253   3.124   0.217  1.00  0.00    -0.532 OA
HETATM   39  O   UNL     1      -1.738   2.769  -0.624  1.00  0.00    -0.532 OA
ENDBRANCH  31  37
ENDBRANCH  28  30
ENDBRANCH  25  26
ENDBRANCH   6  25
TORSDOF 13
