REMARK  12 active torsions:
REMARK  status: ('A' for Active; 'I' for Inactive)
REMARK    1  A    between atoms: O_2  and  C_3 
REMARK    2  A    between atoms: C_3  and  C_5 
REMARK    3  A    between atoms: C_5  and  O_6 
REMARK    4  A    between atoms: O_6  and  C_7 
REMARK    5  A    between atoms: C_7  and  C_8 
REMARK    6  A    between atoms: C_8  and  O_9 
REMARK    7  A    between atoms: O_9  and  C_10 
REMARK    8  A    between atoms: C_10  and  C_11 
REMARK    9  A    between atoms: C_11  and  O_12 
REMARK   10  A    between atoms: O_12  and  C_13 
REMARK   11  A    between atoms: C_13  and  C_14 
REMARK   12  A    between atoms: C_14  and  N_15 
ROOT
HETATM    1  C   UNL     1       5.017   3.525   0.346  1.00  0.00     0.193 C 
ENDROOT
BRANCH   1   2
HETATM    2  O   UNL     1       6.199   4.023   0.958  1.00  0.00    -0.387 OA
BRANCH   2   3
HETATM    3  C   UNL     1       7.223   4.384   0.032  1.00  0.00     0.193 C 
BRANCH   3   4
HETATM    4  C   UNL     1       7.760   3.175  -0.733  1.00  0.00     0.194 C 
BRANCH   4   5
HETATM    5  O   UNL     1       8.961   3.442  -1.446  1.00  0.00    -0.379 OA
BRANCH   5   6
HETATM    6  C   UNL     1      10.135   3.377  -0.643  1.00  0.00     0.278 C 
BRANCH   6   7
HETATM    7  C   UNL     1      10.735   4.729  -0.258  1.00  0.00     0.282 C 
HETATM    8  O   UNL     1      10.163   5.800  -0.462  1.00  0.00    -0.263 OA
BRANCH   7   9
HETATM    9  O   UNL     1      11.938   4.701   0.375  1.00  0.00    -0.325 OA
HETATM   10  C   UNL     1      12.677   3.482   0.522  1.00  0.00     0.213 C 
ENDBRANCH   7   9
ENDBRANCH   6   7
ENDBRANCH   5   6
ENDBRANCH   4   5
ENDBRANCH   3   4
ENDBRANCH   2   3
ENDBRANCH   1   2
BRANCH   1  11
HETATM   11  C   UNL     1       4.908   2.016   0.563  1.00  0.00     0.193 C 
BRANCH  11  12
HETATM   12  O   UNL     1       3.697   1.517   0.011  1.00  0.00    -0.387 OA
BRANCH  12  13
HETATM   13  C   UNL     1       2.567   1.804   0.836  1.00  0.00     0.189 C 
BRANCH  13  14
HETATM   14  C   UNL     1       1.366   1.916  -0.084  1.00  0.00     0.178 C 
BRANCH  14  15
HETATM   15  N   UNL     1       0.718   0.631  -0.141  1.00  0.00    -0.259 N 
HETATM   16  N   UNL     1      -0.331   0.433   0.654  1.00  0.00    -0.066 NA
HETATM   17  N   UNL     1      -0.465  -0.867   0.775  1.00  0.00    -0.136 NA
HETATM   18  C   UNL     1       0.500  -1.539   0.000  1.00  0.00     0.071 A 
HETATM   19  C   UNL     1       1.216  -0.544  -0.634  1.00  0.00     0.142 A 
HETATM   20  C   UNL     1       0.500  -2.539   0.000  1.00  0.00     0.074 C 
ENDBRANCH  14  15
ENDBRANCH  13  14
ENDBRANCH  12  13
ENDBRANCH  11  12
ENDBRANCH   1  11
TORSDOF 12
