REMARK  5 active torsions:
REMARK  status: ('A' for Active; 'I' for Inactive)
REMARK    1  A    between atoms: C_3  and  C_4 
REMARK    2  A    between atoms: C_4  and  C_5 
REMARK    3  A    between atoms: C_4  and  O_7 
REMARK    4  A    between atoms: C_5  and  N_6 
REMARK    5  A    between atoms: O_7  and  C_8 
ROOT
HETATM    1  C   UNL     1       3.464   2.000   0.000  1.00  0.00     0.012 C 
HETATM    2  C   UNL     1       2.598   2.500   0.000  1.00  0.00    -0.115 C 
HETATM    3  C   UNL     1       1.732   3.000   0.000  1.00  0.00     0.127 C 
ENDROOT
BRANCH   3   4
HETATM    4  C   UNL     1       0.371   2.572   0.653  1.00  0.00     0.170 C 
BRANCH   4   5
HETATM    5  C   UNL     1      -0.902   3.161  -0.075  1.00  0.00     0.299 C 
BRANCH   5   6
HETATM    6  N   UNL     1      -2.078   2.294  -0.154  1.00  0.00     0.080 N 
HETATM    7  H   UNL     1      -2.912   2.855  -0.359  1.00  0.00     0.312 HD
HETATM    8  H   UNL     1      -2.243   1.865   0.761  1.00  0.00     0.312 HD
ENDBRANCH   5   6
ENDBRANCH   4   5
BRANCH   4   9
HETATM    9  O   UNL     1       0.282   1.178   1.002  1.00  0.00    -0.320 OA
BRANCH   9  10
HETATM   10  C   UNL     1       0.111   0.252   0.051  1.00  0.00     0.398 C 
HETATM   11  O   UNL     1       0.235  -0.950   0.223  1.00  0.00    -0.276 OA
ENDBRANCH   9  10
ENDBRANCH   4   9
ENDBRANCH   3   4
TORSDOF 5
