REMARK  4 active torsions:
REMARK  status: ('A' for Active; 'I' for Inactive)
REMARK    1  A    between atoms: C_2  and  O_3 
REMARK    2  A    between atoms: C_2  and  C_11 
REMARK    3  A    between atoms: O_3  and  C_4 
REMARK    4  A    between atoms: C_16  and  O_17 
ROOT
HETATM    1  O   UNL     1       0.390  -3.168  -0.027  1.00  0.00    -0.259 OA
HETATM    2  C   UNL     1       0.578  -1.960   0.033  1.00  0.00     0.301 C 
ENDROOT
BRANCH   2   3
HETATM    3  O   UNL     1       1.741  -1.293   0.104  1.00  0.00    -0.271 OA
BRANCH   3   4
HETATM    4  C   UNL     1       3.054  -1.819   0.060  1.00  0.00     0.129 A 
HETATM    5  C   UNL     1       4.121  -0.816   0.020  1.00  0.00     0.227 A 
HETATM    6  C   UNL     1       5.380  -1.278  -0.090  1.00  0.00     0.192 A 
HETATM    7  O   UNL     1       3.694   0.370   0.083  1.00  0.00    -0.283 OA
HETATM    8  O   UNL     1       5.789  -2.583  -0.154  1.00  0.00    -0.355 OA
HETATM    9  C   UNL     1       4.779  -3.588  -0.025  1.00  0.00     0.205 A 
HETATM   10  C   UNL     1       3.364  -3.123   0.046  1.00  0.00     0.041 A 
ENDBRANCH   3   4
ENDBRANCH   2   3
BRANCH   2  11
HETATM   11  C   UNL     1      -0.534  -0.971   0.031  1.00  0.00     0.072 A 
HETATM   12  C   UNL     1      -0.391   0.423   0.030  1.00  0.00     0.082 A 
HETATM   13  C   UNL     1      -1.532   1.237   0.016  1.00  0.00     0.037 A 
HETATM   14  C   UNL     1      -2.812   0.682   0.003  1.00  0.00     0.003 A 
HETATM   15  C   UNL     1      -2.965  -0.700   0.002  1.00  0.00     0.001 A 
HETATM   16  C   UNL     1      -1.834  -1.518   0.016  1.00  0.00     0.020 A 
BRANCH  12  17
HETATM   17  O   UNL     1       0.781   1.127   0.036  1.00  0.00    -0.360 OA
HETATM   18  H   UNL     1       1.611   0.576   0.053  1.00  0.00     0.217 HD
ENDBRANCH  12  17
ENDBRANCH   2  11
TORSDOF 4
