REMARK  2 active torsions:
REMARK  status: ('A' for Active; 'I' for Inactive)
REMARK    1  A    between atoms: S_2  and  C_3 
REMARK    2  A    between atoms: C_3  and  C_4 
ROOT
HETATM    1  C   UNL     1       0.685  -0.623  -1.742  1.00  0.00    -0.048 C 
HETATM    2  C   UNL     1       0.484  -2.042  -1.866  1.00  0.00     0.027 C 
HETATM    3  C   UNL     1      -0.429  -2.627  -1.019  1.00  0.00     0.117 C 
HETATM    4  N   UNL     1      -1.273  -1.940  -0.249  1.00  0.00    -0.266 NA
HETATM    5  C   UNL     1      -1.222  -0.567  -0.412  1.00  0.00     0.030 C 
HETATM    6  C   UNL     1      -2.507   0.129  -0.183  1.00  0.00     0.070 C 
HETATM    7  C   UNL     1      -0.258   0.143  -1.015  1.00  0.00     0.034 C 
ENDROOT
BRANCH   1   8
HETATM    8  C   UNL     1       2.045  -0.025  -1.690  1.00  0.00     0.077 C 
BRANCH   8   9
HETATM    9  S   UNL     1       2.598  -0.500   0.000  1.00  0.00    -0.290 SA
HETATM   10  C   UNL     1       2.598  -1.500   0.000  1.00  0.00     0.248 C 
ENDBRANCH   8   9
ENDBRANCH   1   8
TORSDOF 2
