REMARK  4 active torsions:
REMARK  status: ('A' for Active; 'I' for Inactive)
REMARK    1  A    between atoms: S_2  and  C_3 
REMARK    2  A    between atoms: C_3  and  C_5 
REMARK    3  A    between atoms: C_5  and  C_6 
REMARK    4  A    between atoms: C_6  and  N_7 
ROOT
HETATM    1  C   UNL     1       0.426   0.218   0.023  1.00  0.00     0.137 C 
ENDROOT
BRANCH   1   2
HETATM    2  C   UNL     1       1.560  -0.800   0.172  1.00  0.00     0.111 C 
BRANCH   2   3
HETATM    3  C   UNL     1       2.860  -0.052   0.361  1.00  0.00     0.187 C 
HETATM    4  O   UNL     1       2.895   1.073   0.847  1.00  0.00    -0.285 OA
BRANCH   3   5
HETATM    5  S   UNL     1       4.376  -0.806  -0.119  1.00  0.00    -0.097 SA
HETATM    6  C   UNL     1       4.030  -2.567  -0.142  1.00  0.00     0.098 C 
ENDBRANCH   3   5
ENDBRANCH   2   3
ENDBRANCH   1   2
BRANCH   1   7
HETATM    7  N   UNL     1      -0.923  -0.306  -0.038  1.00  0.00    -0.350 N 
HETATM    8  C   UNL     1      -2.042   0.475   0.090  1.00  0.00     0.209 A 
HETATM    9  N   UNL     1      -3.141  -0.235  -0.015  1.00  0.00    -0.255 NA
HETATM   10  C   UNL     1      -2.721  -1.519  -0.223  1.00  0.00     0.135 A 
HETATM   11  C   UNL     1      -1.342  -1.587  -0.243  1.00  0.00     0.111 A 
ENDBRANCH   1   7
TORSDOF 4
