REMARK  2 active torsions:
REMARK  status: ('A' for Active; 'I' for Inactive)
REMARK    1  A    between atoms: S_2  and  C_3 
REMARK    2  A    between atoms: C_3  and  C_4 
ROOT
HETATM    1  C   UNL     1       0.329  -1.010   0.432  1.00  0.00     0.396 C 
HETATM    2  F   UNL     1       1.091  -1.853  -0.300  1.00  0.00    -0.170 F 
HETATM    3  F   UNL     1       0.565  -1.260   1.737  1.00  0.00    -0.170 F 
HETATM    4  F   UNL     1      -0.964  -1.331   0.187  1.00  0.00    -0.170 F 
ENDROOT
BRANCH   1   5
HETATM    5  C   UNL     1       0.588   0.444   0.064  1.00  0.00     0.190 C 
BRANCH   5   6
HETATM    6  S   UNL     1       2.200   1.161   0.582  1.00  0.00    -0.165 SA
HETATM    7  C   UNL     1       3.333  -0.056  -0.135  1.00  0.00     0.090 C 
ENDBRANCH   5   6
ENDBRANCH   1   5
TORSDOF 2
