REMARK  3 active torsions:
REMARK  status: ('A' for Active; 'I' for Inactive)
REMARK    1  A    between atoms: N_4  and  C_5 
REMARK    2  A    between atoms: C_5  and  C_6 
REMARK    3  A    between atoms: C_6  and  C_8 
ROOT
HETATM    1  C   UNL     1      -2.771   3.656   0.354  1.00  0.00     0.014 A 
HETATM    2  C   UNL     1      -2.940   2.664   1.342  1.00  0.00     0.018 A 
HETATM    3  C   UNL     1      -4.180   2.037   1.520  1.00  0.00     0.040 A 
HETATM    4  C   UNL     1      -5.234   2.461   0.741  1.00  0.00     0.105 A 
HETATM    5  C   UNL     1      -5.086   3.461  -0.189  1.00  0.00     0.105 A 
HETATM    6  C   UNL     1      -3.873   4.078  -0.408  1.00  0.00     0.055 A 
HETATM    7  O   UNL     1      -6.250   3.744  -0.834  1.00  0.00    -0.323 OA
HETATM    8  C   UNL     1      -7.153   2.826  -0.183  1.00  0.00     0.352 A 
HETATM    9  O   UNL     1      -6.505   1.981   0.791  1.00  0.00    -0.323 OA
ENDROOT
BRANCH   1  10
HETATM   10  C   UNL     1      -1.462   4.320   0.086  1.00  0.00     0.178 C 
HETATM   11  O   UNL     1      -1.484   5.543  -0.088  1.00  0.00    -0.290 OA
BRANCH  10  12
HETATM   12  C   UNL     1      -0.155   3.565  -0.064  1.00  0.00     0.230 C 
BRANCH  12  13
HETATM   13  N   UNL     1      -0.240   2.127   0.036  1.00  0.00    -0.276 N 
HETATM   14  C   UNL     1      -0.883   1.265  -0.802  1.00  0.00     0.136 C 
HETATM   15  C   UNL     1      -0.970   0.108  -0.063  1.00  0.00     0.065 C 
HETATM   16  C   UNL     1      -1.765  -1.105  -0.326  1.00  0.00     0.073 C 
HETATM   17  N   UNL     1      -0.247   0.255   1.092  1.00  0.00    -0.164 NA
HETATM   18  N   UNL     1       0.227   1.493   1.126  1.00  0.00     0.005 NA
ENDBRANCH  12  13
ENDBRANCH  10  12
ENDBRANCH   1  10
TORSDOF 3
