REMARK  2 active torsions:
REMARK  status: ('A' for Active; 'I' for Inactive)
REMARK       I    between atoms: N_4  and  C_5 
REMARK    1  A    between atoms: C_5  and  C_7 
REMARK    2  A    between atoms: C_16  and  O_17 
ROOT
HETATM    1  C   UNL     1      -4.432   0.768   0.226  1.00  0.00     0.067 A 
HETATM    2  C   UNL     1      -4.548  -0.583   0.583  1.00  0.00     0.032 A 
HETATM    3  C   UNL     1      -5.742  -1.286   0.375  1.00  0.00    -0.025 A 
HETATM    4  C   UNL     1      -5.831  -2.656   0.662  1.00  0.00     0.012 A 
HETATM    5  C   UNL     1      -7.018  -3.353   0.439  1.00  0.00     0.001 A 
HETATM    6  C   UNL     1      -8.132  -2.684  -0.058  1.00  0.00     0.001 A 
HETATM    7  C   UNL     1      -8.060  -1.318  -0.341  1.00  0.00     0.012 A 
HETATM    8  C   UNL     1      -6.868  -0.604  -0.138  1.00  0.00    -0.023 A 
HETATM    9  C   UNL     1      -6.768   0.767  -0.424  1.00  0.00     0.049 A 
HETATM   10  C   UNL     1      -5.563   1.446  -0.238  1.00  0.00     0.082 A 
ENDROOT
BRANCH   1  11
HETATM   11  C   UNL     1      -3.138   1.486   0.377  1.00  0.00     0.277 C 
HETATM   12  N   UNL     1      -1.877   0.866   0.265  1.00  0.00    -0.211 N 
HETATM   13  C   UNL     1      -1.537  -0.367  -0.251  1.00  0.00     0.145 C 
HETATM   14  N   UNL     1      -0.764   1.458   0.762  1.00  0.00     0.012 NA
HETATM   15  C   UNL     1      -0.235  -0.565   0.139  1.00  0.00     0.066 C 
HETATM   16  C   UNL     1       0.610  -1.768   0.007  1.00  0.00     0.073 C 
HETATM   17  N   UNL     1       0.223   0.570   0.742  1.00  0.00    -0.163 NA
HETATM   18  O   UNL     1      -3.185   2.700   0.603  1.00  0.00    -0.266 OA
ENDBRANCH   1  11
BRANCH  10  19
HETATM   19  O   UNL     1      -5.564   2.782  -0.532  1.00  0.00    -0.360 OA
HETATM   20  H   UNL     1      -4.754   3.188  -0.147  1.00  0.00     0.217 HD
ENDBRANCH  10  19
TORSDOF 2
