REMARK  1 active torsions:
REMARK  status: ('A' for Active; 'I' for Inactive)
REMARK    1  A    between atoms: N_4  and  C_5 
ROOT
HETATM    1  C   UNL     1       1.837  -0.877   0.281  1.00  0.00     0.073 C 
HETATM    2  C   UNL     1       0.389  -0.820   0.009  1.00  0.00     0.065 A 
HETATM    3  C   UNL     1      -0.466  -1.816  -0.405  1.00  0.00     0.136 A 
HETATM    4  N   UNL     1      -1.704  -1.238  -0.354  1.00  0.00    -0.278 N 
HETATM    5  N   UNL     1      -1.596   0.074  -0.073  1.00  0.00     0.005 NA
HETATM    6  N   UNL     1      -0.324   0.334   0.186  1.00  0.00    -0.164 NA
ENDROOT
BRANCH   4   7
HETATM    7  C   UNL     1      -3.005  -1.881  -0.518  1.00  0.00     0.109 C 
HETATM    8  C   UNL     1      -4.190  -1.013  -0.033  1.00  0.00     0.053 C 
HETATM    9  C   UNL     1      -5.262  -1.832   0.668  1.00  0.00     0.169 C 
HETATM   10  O   UNL     1      -5.479  -3.031  -0.060  1.00  0.00    -0.391 OA
HETATM   11  C   UNL     1      -4.390  -3.941   0.043  1.00  0.00     0.169 C 
HETATM   12  C   UNL     1      -3.031  -3.260   0.159  1.00  0.00     0.053 C 
ENDBRANCH   4   7
TORSDOF 1
