REMARK  4 active torsions:
REMARK  status: ('A' for Active; 'I' for Inactive)
REMARK    1  A    between atoms: S_2  and  C_3 
REMARK    2  A    between atoms: C_3  and  C_5 
REMARK    3  A    between atoms: C_5  and  C_6 
REMARK    4  A    between atoms: C_6  and  O_8 
ROOT
HETATM    1  C   UNL     1       1.308   0.023  -1.419  1.00  0.00     0.119 C 
ENDROOT
BRANCH   1   2
HETATM    2  C   UNL     1       2.741   0.388  -1.517  1.00  0.00     0.158 C 
HETATM    3  O   UNL     1       3.321   0.880  -2.471  1.00  0.00    -0.288 OA
BRANCH   2   4
HETATM    4  S   UNL     1       3.464   0.000   0.000  1.00  0.00    -0.232 SA
HETATM    5  C   UNL     1       3.464  -1.000   0.000  1.00  0.00     0.270 C 
ENDBRANCH   2   4
ENDBRANCH   1   2
BRANCH   1   6
HETATM    6  C   UNL     1       0.866   0.500   0.000  1.00  0.00     0.121 C 
HETATM    7  C   UNL     1       0.866   1.500   0.000  1.00  0.00     0.040 C 
BRANCH   6   8
HETATM    8  O   UNL     1      -0.512  -0.074  -0.004  1.00  0.00    -0.396 OA
HETATM    9  H   UNL     1      -1.095   0.473  -0.566  1.00  0.00     0.210 HD
ENDBRANCH   6   8
ENDBRANCH   1   6
TORSDOF 4
