REMARK  5 active torsions:
REMARK  status: ('A' for Active; 'I' for Inactive)
REMARK    1  A    between atoms: C_2  and  S_3 
REMARK    2  A    between atoms: S_3  and  C_4 
REMARK    3  A    between atoms: C_7  and  C_8 
REMARK    4  A    between atoms: C_8  and  O_10 
REMARK    5  A    between atoms: N_11  and  C_12 
ROOT
HETATM    1  C   UNL     1       2.733   0.567   0.321  1.00  0.00     0.176 C 
HETATM    2  N   UNL     1       3.995   0.209   0.346  1.00  0.00    -0.234 NA
HETATM    3  C   UNL     1       3.990  -1.137   0.182  1.00  0.00     0.156 C 
HETATM    4  C   UNL     1       2.702  -1.630   0.128  1.00  0.00     0.129 C 
HETATM    5  N   UNL     1       1.866  -0.500   0.000  1.00  0.00    -0.314 N 
ENDROOT
BRANCH   4   6
HETATM    6  C   UNL     1       2.294  -3.008   0.167  1.00  0.00     0.195 C 
HETATM    7  O   UNL     1       1.169  -3.468   0.250  1.00  0.00    -0.645 OA
BRANCH   6   8
HETATM    8  O   UNL     1       3.361  -3.833   0.099  1.00  0.00    -0.772 OA
HETATM    9  H   UNL     1       2.963  -4.729   0.134  1.00  0.00     0.167 HD
ENDBRANCH   6   8
ENDBRANCH   4   6
BRANCH   5  10
HETATM   10  C   UNL     1       0.866  -0.500   0.000  1.00  0.00     0.092 A 
HETATM   11  C   UNL     1       0.482   0.352  -1.348  1.00  0.00     0.028 A 
HETATM   12  C   UNL     1       0.482  -1.139  -1.462  1.00  0.00     0.028 A 
ENDBRANCH   5  10
BRANCH   1  13
HETATM   13  S   UNL     1       2.182   2.171   0.743  1.00  0.00    -0.023 SA
BRANCH  13  14
HETATM   14  C   UNL     1       3.438   3.183   0.041  1.00  0.00     0.312 C 
HETATM   15  O   UNL     1       4.433   2.808  -0.562  1.00  0.00    -0.295 OA
ENDBRANCH  13  14
ENDBRANCH   1  13
TORSDOF 5
