REMARK  4 active torsions:
REMARK  status: ('A' for Active; 'I' for Inactive)
REMARK    1  A    between atoms: S_2  and  C_3 
REMARK    2  A    between atoms: C_3  and  C_5 
REMARK    3  A    between atoms: C_5  and  N_6 
REMARK    4  A    between atoms: C_5  and  C_7 
ROOT
HETATM    1  C   UNL     1       1.215  -0.919  -0.033  1.00  0.00     0.305 C 
ENDROOT
BRANCH   1   2
HETATM    2  C   UNL     1       0.535  -2.190   0.523  1.00  0.00     0.219 C 
HETATM    3  O   UNL     1       0.806  -2.641   1.628  1.00  0.00    -0.283 OA
BRANCH   2   4
HETATM    4  S   UNL     1      -0.657  -3.003  -0.497  1.00  0.00    -0.095 SA
HETATM    5  C   UNL     1      -2.141  -2.061  -0.097  1.00  0.00     0.099 C 
ENDBRANCH   2   4
ENDBRANCH   1   2
BRANCH   1   6
HETATM    6  N   UNL     1       1.626  -1.069  -1.446  1.00  0.00     0.091 N 
HETATM    7  H   UNL     1       2.321  -1.812  -1.522  1.00  0.00     0.313 HD
HETATM    8  H   UNL     1       2.071  -0.212  -1.764  1.00  0.00     0.313 HD
ENDBRANCH   1   6
BRANCH   1   9
HETATM    9  C   UNL     1       0.363   0.340   0.256  1.00  0.00     0.049 C 
HETATM   10  C   UNL     1      -0.464   0.880  -0.889  1.00  0.00    -0.023 C 
HETATM   11  C   UNL     1      -0.465   2.218  -0.912  1.00  0.00    -0.030 C 
HETATM   12  C   UNL     1       0.368   2.783   0.185  1.00  0.00     0.027 C 
HETATM   13  C   UNL     1       1.211   1.575   0.599  1.00  0.00     0.015 C 
ENDBRANCH   1   9
TORSDOF 4
