REMARK  6 active torsions:
REMARK  status: ('A' for Active; 'I' for Inactive)
REMARK    1  A    between atoms: C_2  and  O_3 
REMARK    2  A    between atoms: O_3  and  C_4 
REMARK    3  A    between atoms: C_4  and  C_5 
REMARK    4  A    between atoms: C_4  and  C_7 
REMARK    5  A    between atoms: C_5  and  O_6 
REMARK    6  A    between atoms: C_7  and  S_8 
ROOT
HETATM    1  C   UNL     1       0.915   1.483  -0.183  1.00  0.00     0.163 C 
ENDROOT
BRANCH   1   2
HETATM    2  O   UNL     1       2.056   2.104   0.467  1.00  0.00    -0.320 OA
BRANCH   2   3
HETATM    3  C   UNL     1       3.269   1.871  -0.093  1.00  0.00     0.398 C 
HETATM    4  O   UNL     1       3.496   1.188  -1.077  1.00  0.00    -0.276 OA
ENDBRANCH   2   3
ENDBRANCH   1   2
BRANCH   1   5
HETATM    5  C   UNL     1      -0.299   2.333   0.229  1.00  0.00     0.197 C 
BRANCH   5   6
HETATM    6  O   UNL     1      -1.513   1.894  -0.362  1.00  0.00    -0.398 OA
HETATM    7  H   UNL     1      -2.205   2.528  -0.103  1.00  0.00     0.209 HD
ENDBRANCH   5   6
ENDBRANCH   1   5
BRANCH   1   8
HETATM    8  C   UNL     1       0.819   0.015   0.274  1.00  0.00     0.105 C 
BRANCH   8   9
HETATM    9  S   UNL     1      -0.423  -0.989  -0.597  1.00  0.00    -0.180 SA
HETATM   10  H   UNL     1      -1.424  -0.095  -0.489  1.00  0.00     0.101 HD
ENDBRANCH   8   9
ENDBRANCH   1   8
TORSDOF 6
