REMARK  2 active torsions:
REMARK  status: ('A' for Active; 'I' for Inactive)
REMARK    1  A    between atoms: S_2  and  C_3 
REMARK       I    between atoms: C_3  and  N_5 
REMARK    2  A    between atoms: N_5  and  C_6 
ROOT
HETATM    1  C   UNL     1      -0.416   0.296  -1.542  1.00  0.00     0.213 A 
HETATM    2  C   UNL     1       0.950  -0.369  -1.247  1.00  0.00     0.251 A 
HETATM    3  O   UNL     1       2.037   0.029  -1.643  1.00  0.00    -0.270 OA
HETATM    4  N   UNL     1       0.692  -1.501  -0.467  1.00  0.00    -0.320 N 
HETATM    5  C   UNL     1       1.715  -2.435  -0.078  1.00  0.00     0.159 C 
HETATM    6  C   UNL     1      -0.669  -1.592  -0.142  1.00  0.00     0.045 A 
HETATM    7  C   UNL     1      -1.320  -2.540   0.626  1.00  0.00     0.030 A 
HETATM    8  C   UNL     1      -2.695  -2.389   0.824  1.00  0.00     0.002 A 
HETATM    9  C   UNL     1      -3.392  -1.310   0.253  1.00  0.00     0.001 A 
HETATM   10  C   UNL     1      -2.728  -0.366  -0.530  1.00  0.00     0.012 A 
HETATM   11  C   UNL     1      -1.365  -0.519  -0.716  1.00  0.00     0.001 A 
ENDROOT
BRANCH   1  12
HETATM   12  N   UNL     1      -0.393   1.729  -1.376  1.00  0.00    -0.334 N 
HETATM   13  C   UNL     1      -0.362   2.339  -0.162  1.00  0.00     0.280 C 
HETATM   14  O   UNL     1      -0.657   1.874   0.923  1.00  0.00    -0.260 OA
HETATM   15  H   UNL     1       0.088   2.250  -2.096  1.00  0.00     0.164 HD
BRANCH  13  16
HETATM   16  S   UNL     1       0.270   3.957  -0.346  1.00  0.00    -0.074 SA
HETATM   17  C   UNL     1       2.021   3.530  -0.207  1.00  0.00     0.100 C 
ENDBRANCH  13  16
ENDBRANCH   1  12
TORSDOF 2
