REMARK  2 active torsions:
REMARK  status: ('A' for Active; 'I' for Inactive)
REMARK    1  A    between atoms: C_6  and  N_7 
REMARK    2  A    between atoms: N_7  and  C_8 
ROOT
HETATM    1  C   UNL     1      -0.866  -1.500   0.000  1.00  0.00     0.049 C 
HETATM    2  C   UNL     1      -0.866  -0.500   0.000  1.00  0.00    -0.042 A 
HETATM    3  C   UNL     1      -1.975   0.363   0.000  1.00  0.00     0.123 A 
HETATM    4  N   UNL     1      -1.994   1.728   0.000  1.00  0.00    -0.270 NA
HETATM    5  C   UNL     1      -0.806   2.355   0.000  1.00  0.00     0.145 A 
HETATM    6  C   UNL     1       0.397   1.681   0.000  1.00  0.00     0.052 A 
HETATM    7  C   UNL     1       0.327   0.283   0.000  1.00  0.00     0.039 A 
ENDROOT
BRANCH   6   8
HETATM    8  N   UNL     1       1.607   2.398   0.000  1.00  0.00    -0.333 N 
HETATM    9  H   UNL     1       1.572   3.410   0.000  1.00  0.00     0.168 HD
BRANCH   8  10
HETATM   10  C   UNL     1       2.875   1.891  -0.000  1.00  0.00     0.353 C 
HETATM   11  O   UNL     1       3.869   2.609  -0.000  1.00  0.00    -0.283 OA
ENDBRANCH   8  10
ENDBRANCH   6   8
TORSDOF 2
