REMARK  7 active torsions:
REMARK  status: ('A' for Active; 'I' for Inactive)
REMARK    1  A    between atoms: C_2  and  C_4 
REMARK    2  A    between atoms: C_4  and  O_5 
REMARK    3  A    between atoms: C_4  and  C_6 
REMARK    4  A    between atoms: C_6  and  C_8 
REMARK    5  A    between atoms: C_8  and  C_10 
REMARK    6  A    between atoms: C_10  and  O_12 
REMARK    7  A    between atoms: O_12  and  C_13 
ROOT
HETATM    1  C   UNL     1       1.853  -1.845  -0.173  1.00  0.00     0.260 C 
HETATM    2  O   UNL     1       2.249  -1.615  -1.310  1.00  0.00    -0.283 OA
ENDROOT
BRANCH   1   3
HETATM    3  C   UNL     1       2.752  -2.088   1.023  1.00  0.00     0.279 C 
HETATM    4  F   UNL     1       2.154  -1.718   2.203  1.00  0.00    -0.238 F 
BRANCH   3   5
HETATM    5  C   UNL     1       4.134  -1.393   1.010  1.00  0.00     0.163 C 
BRANCH   5   6
HETATM    6  C   UNL     1       5.196  -2.000   0.000  1.00  0.00     0.009 C 
HETATM    7  C   UNL     1       5.196  -3.000   0.000  1.00  0.00     0.012 C 
HETATM    8  C   UNL     1       6.547  -1.226   0.203  1.00  0.00     0.012 C 
ENDBRANCH   5   6
BRANCH   5   9
HETATM    9  O   UNL     1       4.019   0.021   0.810  1.00  0.00    -0.392 OA
HETATM   10  H   UNL     1       3.315   0.361   1.392  1.00  0.00     0.210 HD
ENDBRANCH   5   9
ENDBRANCH   3   5
ENDBRANCH   1   3
BRANCH   1  11
HETATM   11  C   UNL     1       0.414  -2.276   0.105  1.00  0.00     0.338 C 
HETATM   12  O   UNL     1       0.153  -3.467  -0.066  1.00  0.00    -0.255 OA
BRANCH  11  13
HETATM   13  O   UNL     1      -0.307  -1.438   0.883  1.00  0.00    -0.267 OA
BRANCH  13  14
HETATM   14  C   UNL     1      -0.155  -0.054   0.644  1.00  0.00     0.151 A 
HETATM   15  C   UNL     1      -0.887   0.547  -0.468  1.00  0.00     0.205 A 
HETATM   16  C   UNL     1      -0.733   1.873  -0.610  1.00  0.00     0.057 A 
HETATM   17  O   UNL     1      -1.581  -0.260  -1.134  1.00  0.00    -0.286 OA
HETATM   18  C   UNL     1       0.146   2.713   0.262  1.00  0.00     0.206 A 
HETATM   19  O   UNL     1       0.753   2.060   1.393  1.00  0.00    -0.356 OA
HETATM   20  C   UNL     1       0.548   0.711   1.494  1.00  0.00     0.176 A 
ENDBRANCH  13  14
ENDBRANCH  11  13
ENDBRANCH   1  11
TORSDOF 7
