REMARK  3 active torsions:
REMARK  status: ('A' for Active; 'I' for Inactive)
REMARK    1  A    between atoms: C_4  and  C_5 
REMARK    2  A    between atoms: C_5  and  N_6 
REMARK    3  A    between atoms: N_6  and  C_8 
ROOT
HETATM    1  C   UNL     1      -1.029   0.864  -0.480  1.00  0.00     0.129 C 
ENDROOT
BRANCH   1   2
HETATM    2  C   UNL     1       0.304   0.331  -0.920  1.00  0.00     0.007 A 
HETATM    3  C   UNL     1       1.316  -0.092   0.124  1.00  0.00    -0.013 A 
HETATM    4  C   UNL     1       2.692   0.473   0.070  1.00  0.00     0.010 C 
HETATM    5  C   UNL     1       0.805  -1.095  -0.881  1.00  0.00     0.011 A 
ENDBRANCH   1   2
BRANCH   1   6
HETATM    6  N   UNL     1      -2.058  -0.083  -0.062  1.00  0.00    -0.363 N 
HETATM    7  C   UNL     1      -3.424   0.291  -0.385  1.00  0.00     0.152 C 
BRANCH   6   8
HETATM    8  C   UNL     1      -1.905  -0.823   1.103  1.00  0.00     0.350 C 
HETATM    9  O   UNL     1      -2.813  -1.303   1.774  1.00  0.00    -0.284 OA
ENDBRANCH   6   8
ENDBRANCH   1   6
TORSDOF 3
