REMARK  3 active torsions:
REMARK  status: ('A' for Active; 'I' for Inactive)
REMARK    1  A    between atoms: S_2  and  C_3 
REMARK       I    between atoms: C_3  and  N_5 
REMARK    2  A    between atoms: N_5  and  C_6 
REMARK    3  A    between atoms: C_9  and  C_10 
ROOT
HETATM    1  C   UNL     1       1.299  -1.075   1.126  1.00  0.00     0.035 C 
HETATM    2  C   UNL     1      -0.035  -1.105   0.759  1.00  0.00     0.030 C 
HETATM    3  C   UNL     1      -0.740   0.048   0.539  1.00  0.00     0.010 C 
HETATM    4  C   UNL     1      -0.128   1.299   0.644  1.00  0.00    -0.051 C 
HETATM    5  C   UNL     1       1.186   1.347   1.153  1.00  0.00     0.010 C 
HETATM    6  C   UNL     1       1.887   0.159   1.411  1.00  0.00     0.030 C 
ENDROOT
BRANCH   1   7
HETATM    7  N   UNL     1       2.054  -2.243   1.256  1.00  0.00    -0.318 N 
HETATM    8  C   UNL     1       1.824  -3.527   0.822  1.00  0.00     0.283 C 
HETATM    9  O   UNL     1       2.416  -4.472   1.340  1.00  0.00    -0.260 OA
HETATM   10  H   UNL     1       2.899  -2.179   1.809  1.00  0.00     0.169 HD
BRANCH   8  11
HETATM   11  S   UNL     1       0.841  -3.814  -0.600  1.00  0.00    -0.073 SA
HETATM   12  C   UNL     1      -0.658  -4.464   0.184  1.00  0.00     0.100 C 
ENDBRANCH   8  11
ENDBRANCH   1   7
BRANCH   4  13
HETATM   13  C   UNL     1      -0.866   2.500   0.000  1.00  0.00    -0.024 C 
HETATM   14  C   UNL     1      -0.463   3.883   0.671  1.00  0.00     0.019 C 
HETATM   15  C   UNL     1      -1.866   2.500   0.000  1.00  0.00     0.019 C 
HETATM   16  C   UNL     1      -0.144   2.597  -1.400  1.00  0.00     0.019 C 
ENDBRANCH   4  13
TORSDOF 3
