REMARK  4 active torsions:
REMARK  status: ('A' for Active; 'I' for Inactive)
REMARK    1  A    between atoms: S_2  and  C_3 
REMARK    2  A    between atoms: C_3  and  C_5 
REMARK    3  A    between atoms: C_5  and  N_7 
REMARK    4  A    between atoms: C_5  and  C_8 
ROOT
HETATM    1  C   UNL     1       1.365   1.208   0.082  1.00  0.00     0.228 C 
HETATM    2  C   UNL     1       2.892   1.359  -0.107  1.00  0.00     0.059 C 
ENDROOT
BRANCH   1   3
HETATM    3  C   UNL     1       0.518   2.074  -0.938  1.00  0.00     0.224 C 
HETATM    4  O   UNL     1      -0.708   2.089  -0.990  1.00  0.00    -0.283 OA
BRANCH   3   5
HETATM    5  S   UNL     1       1.387   3.230  -1.970  1.00  0.00    -0.094 SA
HETATM    6  C   UNL     1       1.246   4.654  -0.865  1.00  0.00     0.099 C 
ENDBRANCH   3   5
ENDBRANCH   1   3
BRANCH   1   7
HETATM    7  N   UNL     1       1.073   1.744   1.444  1.00  0.00     0.096 N 
HETATM    8  H   UNL     1       1.444   2.686   1.537  1.00  0.00     0.314 HD
HETATM    9  H   UNL     1       1.548   1.170   2.132  1.00  0.00     0.314 HD
ENDBRANCH   1   7
BRANCH   1  10
HETATM   10  C   UNL     1       0.938  -0.314   0.130  1.00  0.00    -0.001 A 
HETATM   11  C   UNL     1      -0.406  -0.656   0.769  1.00  0.00     0.013 A 
HETATM   12  C   UNL     1      -0.219  -0.865  -0.700  1.00  0.00     0.013 A 
HETATM   13  C   UNL     1       2.053  -1.314   0.380  1.00  0.00     0.018 C 
ENDBRANCH   1  10
TORSDOF 4
