REMARK  3 active torsions:
REMARK  status: ('A' for Active; 'I' for Inactive)
REMARK    1  A    between atoms: N_4  and  C_5 
REMARK    2  A    between atoms: C_5  and  C_6 
REMARK    3  A    between atoms: C_6  and  C_8 
ROOT
HETATM    1  C   UNL     1      -1.431   4.380  -0.218  1.00  0.00     0.178 C 
HETATM    2  O   UNL     1      -1.240   5.548  -0.550  1.00  0.00    -0.290 OA
ENDROOT
BRANCH   1   3
HETATM    3  C   UNL     1      -0.364   3.569   0.486  1.00  0.00     0.230 C 
BRANCH   3   4
HETATM    4  N   UNL     1      -0.364   2.165   0.151  1.00  0.00    -0.276 N 
HETATM    5  C   UNL     1      -1.084   1.158   0.723  1.00  0.00     0.136 A 
HETATM    6  C   UNL     1      -0.902   0.100  -0.141  1.00  0.00     0.065 A 
HETATM    7  C   UNL     1      -1.562  -1.218  -0.182  1.00  0.00     0.073 C 
HETATM    8  N   UNL     1      -0.006   0.462  -1.111  1.00  0.00    -0.164 NA
HETATM    9  N   UNL     1       0.328   1.728  -0.913  1.00  0.00     0.005 NA
ENDBRANCH   3   4
ENDBRANCH   1   3
BRANCH   1  10
HETATM   10  C   UNL     1      -2.816   3.866  -0.315  1.00  0.00     0.014 A 
HETATM   11  C   UNL     1      -3.804   4.511   0.432  1.00  0.00     0.057 A 
HETATM   12  C   UNL     1      -5.110   4.040   0.380  1.00  0.00     0.117 A 
HETATM   13  C   UNL     1      -5.448   2.941  -0.403  1.00  0.00     0.042 A 
HETATM   14  F   UNL     1      -6.059   4.650   1.101  1.00  0.00    -0.206 F 
HETATM   15  C   UNL     1      -4.467   2.316  -1.173  1.00  0.00     0.004 A 
HETATM   16  C   UNL     1      -3.152   2.790  -1.146  1.00  0.00     0.015 A 
ENDBRANCH   1  10
TORSDOF 3
