REMARK  6 active torsions:
REMARK  status: ('A' for Active; 'I' for Inactive)
REMARK    1  A    between atoms: S_2  and  C_3 
REMARK    2  A    between atoms: C_3  and  C_5 
REMARK    3  A    between atoms: C_5  and  C_6 
REMARK    4  A    between atoms: C_6  and  N_7 
REMARK    5  A    between atoms: C_6  and  C_8 
REMARK    6  A    between atoms: C_8  and  N_9 
ROOT
HETATM    1  C   UNL     1       0.339   0.516   0.034  1.00  0.00     0.253 C 
ENDROOT
BRANCH   1   2
HETATM    2  C   UNL     1       1.572  -0.306  -0.384  1.00  0.00     0.124 C 
BRANCH   2   3
HETATM    3  C   UNL     1       2.850   0.399   0.014  1.00  0.00     0.157 C 
HETATM    4  O   UNL     1       2.888   1.591   0.298  1.00  0.00    -0.288 OA
BRANCH   3   5
HETATM    5  S   UNL     1       4.330  -0.500   0.000  1.00  0.00    -0.232 SA
HETATM    6  C   UNL     1       4.330  -1.500   0.000  1.00  0.00     0.270 C 
ENDBRANCH   3   5
ENDBRANCH   2   3
ENDBRANCH   1   2
BRANCH   1   7
HETATM    7  N   UNL     1       0.203   1.750  -0.767  1.00  0.00     0.085 N 
HETATM    8  H   UNL     1       1.080   2.279  -0.683  1.00  0.00     0.313 HD
HETATM    9  H   UNL     1      -0.492   2.351  -0.326  1.00  0.00     0.313 HD
ENDBRANCH   1   7
BRANCH   1  10
HETATM   10  C   UNL     1      -0.945  -0.341  -0.082  1.00  0.00     0.302 C 
BRANCH  10  11
HETATM   11  N   UNL     1      -2.165   0.431   0.178  1.00  0.00     0.080 N 
HETATM   12  H   UNL     1      -2.221   1.159  -0.536  1.00  0.00     0.312 HD
HETATM   13  H   UNL     1      -2.075   0.919   1.067  1.00  0.00     0.312 HD
ENDBRANCH  10  11
ENDBRANCH   1  10
TORSDOF 6
