REMARK  0 active torsions:
REMARK  status: ('A' for Active; 'I' for Inactive)
ROOT
HETATM    1  C   UNL     1       2.732  -1.000   0.000  1.00  0.00     0.184 C 
HETATM    2  S   UNL     1       2.732   0.000   0.000  1.00  0.00    -0.198 SA
HETATM    3  C   UNL     1       1.694   1.157  -0.000  1.00  0.00     0.179 A 
HETATM    4  O   UNL     1       1.596   2.360   0.000  1.00  0.00    -0.286 OA
HETATM    5  C   UNL     1       1.000   0.000   0.000  1.00  0.00     0.196 A 
HETATM    6  C   UNL     1       0.500  -0.866   0.000  1.00  0.00     0.074 A 
HETATM    7  C   UNL     1       0.500  -1.866   0.000  1.00  0.00    -0.001 C 
HETATM    8  C   UNL     1       0.000   0.000   0.000  1.00  0.00     0.262 A 
HETATM    9  F   UNL     1      -0.500   0.866   0.000  1.00  0.00    -0.205 F 
HETATM   10  F   UNL     1      -1.000   0.000   0.000  1.00  0.00    -0.205 F 
ENDROOT
TORSDOF 0
