REMARK  4 active torsions:
REMARK  status: ('A' for Active; 'I' for Inactive)
REMARK    1  A    between atoms: S_2  and  C_3 
REMARK    2  A    between atoms: C_3  and  O_4 
REMARK    3  A    between atoms: O_4  and  C_5 
REMARK    4  A    between atoms: C_5  and  C_7 
ROOT
HETATM    1  C   UNL     1       0.546   0.376  -0.077  1.00  0.00     0.263 C 
HETATM    2  O   UNL     1       0.352   1.540   0.234  1.00  0.00    -0.265 OA
ENDROOT
BRANCH   1   3
HETATM    3  O   UNL     1       1.750  -0.264  -0.103  1.00  0.00    -0.314 OA
BRANCH   3   4
HETATM    4  C   UNL     1       2.790   0.542   0.444  1.00  0.00     0.219 C 
BRANCH   4   5
HETATM    5  S   UNL     1       4.464   0.000   0.000  1.00  0.00    -0.273 SA
HETATM    6  C   UNL     1       4.464  -1.000   0.000  1.00  0.00     0.253 C 
ENDBRANCH   4   5
ENDBRANCH   3   4
ENDBRANCH   1   3
BRANCH   1   7
HETATM    7  C   UNL     1      -0.568  -0.527  -0.439  1.00  0.00     0.085 A 
HETATM    8  C   UNL     1      -1.764  -0.612   0.484  1.00  0.00     0.015 A 
HETATM    9  C   UNL     1      -0.834  -1.782   0.357  1.00  0.00     0.015 A 
ENDBRANCH   1   7
TORSDOF 4
