REMARK  5 active torsions:
REMARK  status: ('A' for Active; 'I' for Inactive)
REMARK    1  A    between atoms: N_4  and  C_5 
REMARK    2  A    between atoms: C_8  and  N_9 
REMARK    3  A    between atoms: N_9  and  C_10 
REMARK    4  A    between atoms: C_10  and  O_12 
REMARK    5  A    between atoms: O_12  and  C_13 
ROOT
HETATM    1  C   UNL     1      -2.897   1.879  -0.411  1.00  0.00     0.054 C 
HETATM    2  C   UNL     1      -4.118   1.374  -0.862  1.00  0.00     0.033 C 
HETATM    3  C   UNL     1      -5.248   2.185  -0.854  1.00  0.00     0.032 C 
HETATM    4  C   UNL     1      -5.202   3.483  -0.337  1.00  0.00     0.034 C 
HETATM    5  C   UNL     1      -3.964   4.019   0.028  1.00  0.00     0.032 C 
HETATM    6  C   UNL     1      -2.812   3.218  -0.002  1.00  0.00     0.033 C 
ENDROOT
BRANCH   4   7
HETATM    7  N   UNL     1      -6.369   4.251  -0.133  1.00  0.00    -0.327 N 
HETATM    8  H   UNL     1      -6.262   5.244   0.035  1.00  0.00     0.169 HD
BRANCH   7   9
HETATM    9  C   UNL     1      -7.631   3.756   0.141  1.00  0.00     0.220 C 
HETATM   10  S   UNL     1      -8.913   4.749   0.481  1.00  0.00    -0.033 SA
BRANCH   9  11
HETATM   11  O   UNL     1      -7.673   2.411   0.311  1.00  0.00    -0.279 OA
BRANCH  11  12
HETATM   12  C   UNL     1      -8.606   1.340   0.407  1.00  0.00     0.146 C 
HETATM   13  C   UNL     1      -9.937   1.329  -0.245  1.00  0.00     0.186 C 
HETATM   14  C   UNL     1     -10.830   0.173   0.124  1.00  0.00     0.112 C 
HETATM   15  O   UNL     1     -10.283   2.188  -1.056  1.00  0.00    -0.290 OA
HETATM   16  C   UNL     1      -9.966  -1.072   0.092  1.00  0.00     0.182 C 
HETATM   17  O   UNL     1      -8.883  -0.990   1.030  1.00  0.00    -0.360 OA
HETATM   18  C   UNL     1      -8.206   0.197   0.983  1.00  0.00     0.175 C 
ENDBRANCH  11  12
ENDBRANCH   9  11
ENDBRANCH   7   9
ENDBRANCH   4   7
BRANCH   1  19
HETATM   19  N   UNL     1      -1.775   1.023  -0.317  1.00  0.00    -0.247 N 
HETATM   20  C   UNL     1      -1.751  -0.346  -0.452  1.00  0.00     0.142 A 
HETATM   21  C   UNL     1      -0.509  -0.717   0.002  1.00  0.00     0.065 A 
HETATM   22  C   UNL     1      -0.020  -2.067   0.333  1.00  0.00     0.073 C 
HETATM   23  N   UNL     1       0.232   0.404   0.243  1.00  0.00    -0.163 NA
HETATM   24  N   UNL     1      -0.547   1.461   0.047  1.00  0.00     0.009 NA
ENDBRANCH   1  19
TORSDOF 5
