REMARK  3 active torsions:
REMARK  status: ('A' for Active; 'I' for Inactive)
REMARK    1  A    between atoms: C_2  and  C_3 
REMARK    2  A    between atoms: C_9  and  N_10 
REMARK       I    between atoms: N_10  and  C_11 
REMARK    3  A    between atoms: C_11  and  S_13 
ROOT
HETATM    1  C   UNL     1      -0.629  -1.176  -0.445  1.00  0.00    -0.030 A 
HETATM    2  C   UNL     1      -1.732  -1.765   0.231  1.00  0.00     0.028 A 
HETATM    3  C   UNL     1      -3.050  -1.497  -0.152  1.00  0.00     0.011 A 
HETATM    4 BR   UNL     1      -4.480  -2.346   0.749  1.00  0.00    -0.051 Br
HETATM    5  C   UNL     1      -3.320  -0.617  -1.193  1.00  0.00     0.021 A 
HETATM    6  C   UNL     1      -2.260  -0.025  -1.874  1.00  0.00     0.031 A 
HETATM    7  C   UNL     1      -0.936  -0.313  -1.515  1.00  0.00     0.041 A 
ENDROOT
BRANCH   7   8
HETATM    8  N   UNL     1       0.064   0.437  -2.148  1.00  0.00    -0.320 N 
HETATM    9  C   UNL     1       0.793   1.357  -1.434  1.00  0.00     0.253 C 
HETATM   10  O   UNL     1       1.912   1.712  -1.787  1.00  0.00    -0.263 OA
HETATM   11  H   UNL     1       0.691  -0.083  -2.752  1.00  0.00     0.169 HD
BRANCH   9  12
HETATM   12  S   UNL     1       0.000   2.000   0.000  1.00  0.00    -0.213 SA
HETATM   13  C   UNL     1       0.000   3.000   0.000  1.00  0.00     0.276 C 
ENDBRANCH   9  12
ENDBRANCH   7   8
BRANCH   1  14
HETATM   14  C   UNL     1       0.866  -1.500   0.000  1.00  0.00     0.036 C 
HETATM   15  C   UNL     1       0.866  -2.500   0.000  1.00  0.00     0.010 C 
ENDBRANCH   1  14
TORSDOF 3
