REMARK  4 active torsions:
REMARK  status: ('A' for Active; 'I' for Inactive)
REMARK    1  A    between atoms: N_4  and  C_5 
REMARK    2  A    between atoms: C_5  and  C_6 
REMARK       I    between atoms: N_9  and  C_10 
REMARK    3  A    between atoms: C_10  and  O_12 
REMARK    4  A    between atoms: O_12  and  C_13 
ROOT
HETATM    1  C   UNL     1      -3.618   1.305  -0.453  1.00  0.00     0.008 C 
HETATM    2  C   UNL     1      -3.598   0.160   0.579  1.00  0.00     0.026 C 
HETATM    3  C   UNL     1      -4.962  -0.438   0.897  1.00  0.00     0.128 C 
HETATM    4  N   UNL     1      -5.997   0.086   0.032  1.00  0.00    -0.328 N 
HETATM    5  C   UNL     1      -6.503  -0.595  -1.072  1.00  0.00     0.363 C 
HETATM    6  O   UNL     1      -6.897  -0.023  -2.078  1.00  0.00    -0.238 OA
HETATM    7  C   UNL     1      -6.131   1.531   0.083  1.00  0.00     0.128 C 
HETATM    8  C   UNL     1      -4.812   2.250  -0.222  1.00  0.00     0.026 C 
ENDROOT
BRANCH   1   9
HETATM    9  C   UNL     1      -2.291   2.103  -0.494  1.00  0.00     0.150 C 
BRANCH   9  10
HETATM   10  N   UNL     1      -1.101   1.290  -0.325  1.00  0.00    -0.283 N 
HETATM   11  C   UNL     1      -0.798   0.120  -0.965  1.00  0.00     0.136 C 
HETATM   12  C   UNL     1      -0.003  -0.541  -0.054  1.00  0.00     0.065 C 
HETATM   13  C   UNL     1       0.385  -1.963   0.001  1.00  0.00     0.073 C 
HETATM   14  N   UNL     1       0.308   0.310   0.972  1.00  0.00    -0.164 NA
HETATM   15  N   UNL     1      -0.351   1.443   0.780  1.00  0.00     0.004 NA
ENDBRANCH   9  10
ENDBRANCH   1   9
BRANCH   5  16
HETATM   16  O   UNL     1      -6.461  -1.955  -1.023  1.00  0.00    -0.294 OA
BRANCH  16  17
HETATM   17  C   UNL     1      -7.133  -2.776  -0.015  1.00  0.00     0.061 C 
HETATM   18  C   UNL     1      -8.106  -3.702  -0.768  1.00  0.00     0.046 C 
HETATM   19  C   UNL     1      -6.053  -3.657   0.635  1.00  0.00     0.046 C 
HETATM   20  C   UNL     1      -7.955  -1.991   1.019  1.00  0.00     0.046 C 
ENDBRANCH  16  17
ENDBRANCH   5  16
TORSDOF 4
