REMARK  5 active torsions:
REMARK  status: ('A' for Active; 'I' for Inactive)
REMARK    1  A    between atoms: C_2  and  O_3 
REMARK    2  A    between atoms: O_3  and  C_4 
REMARK    3  A    between atoms: C_9  and  C_10 
REMARK    4  A    between atoms: C_10  and  N_13 
REMARK    5  A    between atoms: N_11  and  O_12 
ROOT
HETATM    1  C   UNL     1      -1.299   0.255   0.014  1.00  0.00     0.187 C 
HETATM    2  N   UNL     1      -1.408  -1.025   0.273  1.00  0.00    -0.115 NA
ENDROOT
BRANCH   1   3
HETATM    3  C   UNL     1      -2.597   1.013  -0.125  1.00  0.00     0.047 A 
HETATM    4  C   UNL     1      -3.719   0.459  -0.762  1.00  0.00     0.082 A 
HETATM    5  C   UNL     1      -4.892   1.213  -0.921  1.00  0.00     0.038 A 
HETATM    6  C   UNL     1      -4.986   2.490  -0.368  1.00  0.00     0.003 A 
HETATM    7  C   UNL     1      -3.911   3.017   0.342  1.00  0.00     0.001 A 
HETATM    8  C   UNL     1      -2.727   2.284   0.466  1.00  0.00     0.018 A 
BRANCH   4   9
HETATM    9  O   UNL     1      -3.763  -0.883  -1.117  1.00  0.00    -0.351 OA
BRANCH   9  10
HETATM   10  C   UNL     1      -4.378  -1.593   0.000  1.00  0.00     0.171 C 
HETATM   11  C   UNL     1      -4.378  -2.593   0.000  1.00  0.00     0.034 C 
ENDBRANCH   9  10
ENDBRANCH   4   9
ENDBRANCH   1   3
BRANCH   1  12
HETATM   12  N   UNL     1      -0.064   0.943  -0.109  1.00  0.00    -0.227 N 
HETATM   13  N   UNL     1       1.080   0.495   0.469  1.00  0.00     0.011 NA
HETATM   14  N   UNL     1       1.968   1.478   0.475  1.00  0.00    -0.163 NA
HETATM   15  C   UNL     1       1.416   2.553  -0.156  1.00  0.00     0.065 C 
HETATM   16  C   UNL     1       0.169   2.206  -0.623  1.00  0.00     0.144 C 
HETATM   17  C   UNL     1       2.110   3.849  -0.210  1.00  0.00     0.073 C 
ENDBRANCH   1  12
BRANCH   2  18
HETATM   18  O   UNL     1      -0.211  -1.735   0.258  1.00  0.00    -0.264 OA
HETATM   19  H   UNL     1      -0.506  -2.655   0.383  1.00  0.00     0.247 HD
ENDBRANCH   2  18
TORSDOF 5
