REMARK  2 active torsions:
REMARK  status: ('A' for Active; 'I' for Inactive)
REMARK    1  A    between atoms: C_5  and  C_6 
REMARK       I    between atoms: C_6  and  N_8 
REMARK    2  A    between atoms: N_8  and  C_9 
ROOT
HETATM    1  C   UNL     1      -1.478   0.312   0.786  1.00  0.00     0.234 C 
HETATM    2  O   UNL     1      -1.436   1.464   1.198  1.00  0.00    -0.272 OA
HETATM    3  N   UNL     1      -2.612  -0.425   0.590  1.00  0.00    -0.304 N 
HETATM    4  H   UNL     1      -2.538  -1.370   0.242  1.00  0.00     0.171 HD
ENDROOT
BRANCH   1   5
HETATM    5  C   UNL     1      -0.257  -0.460   0.493  1.00  0.00     0.066 A 
HETATM    6  C   UNL     1       1.013  -0.014  -0.063  1.00  0.00    -0.029 A 
HETATM    7  C   UNL     1       1.090   1.368  -0.660  1.00  0.00     0.016 C 
HETATM    8  C   UNL     1       2.270  -0.472   0.627  1.00  0.00     0.016 C 
HETATM    9  C   UNL     1       0.146  -1.061  -0.755  1.00  0.00     0.031 A 
ENDBRANCH   1   5
BRANCH   3  10
HETATM   10  C   UNL     1      -3.818   0.167   0.352  1.00  0.00     0.355 C 
HETATM   11  O   UNL     1      -4.737  -0.421  -0.205  1.00  0.00    -0.283 OA
ENDBRANCH   3  10
TORSDOF 2
