REMARK  1 active torsions:
REMARK  status: ('A' for Active; 'I' for Inactive)
REMARK    1  A    between atoms: N_4  and  C_5 
ROOT
HETATM    1  C   UNL     1      -1.891  -2.173   0.513  1.00  0.00     0.061 A 
HETATM    2  C   UNL     1      -2.093  -3.582   0.515  1.00  0.00     0.032 A 
HETATM    3  C   UNL     1      -3.272  -4.127   0.040  1.00  0.00     0.004 A 
HETATM    4  C   UNL     1      -4.232  -3.273  -0.454  1.00  0.00     0.024 A 
HETATM    5  C   UNL     1      -4.009  -1.881  -0.456  1.00  0.00     0.042 A 
HETATM    6 CL   UNL     1      -5.380  -0.958  -1.078  1.00  0.00    -0.084 Cl
HETATM    7  C   UNL     1      -2.815  -1.202   0.000  1.00  0.00    -0.012 A 
HETATM    8  C   UNL     1      -2.815  -0.202   0.000  1.00  0.00     0.052 C 
ENDROOT
BRANCH   1   9
HETATM    9  N   UNL     1      -0.634  -1.766   1.034  1.00  0.00    -0.247 N 
HETATM   10  C   UNL     1       0.578  -2.096   0.476  1.00  0.00     0.142 C 
HETATM   11  C   UNL     1       1.393  -1.053   0.842  1.00  0.00     0.065 C 
HETATM   12  C   UNL     1       2.693  -0.647   0.281  1.00  0.00     0.073 C 
HETATM   13  N   UNL     1       0.752  -0.284   1.779  1.00  0.00    -0.163 NA
HETATM   14  N   UNL     1      -0.481  -0.749   1.911  1.00  0.00     0.009 NA
ENDBRANCH   1   9
TORSDOF 1
