REMARK  4 active torsions:
REMARK  status: ('A' for Active; 'I' for Inactive)
REMARK    1  A    between atoms: C_2  and  C_3 
REMARK    2  A    between atoms: C_3  and  C_4 
REMARK    3  A    between atoms: C_6  and  N_7 
REMARK    4  A    between atoms: N_7  and  C_8 
ROOT
HETATM    1  C   UNL     1       0.164  -0.290   0.937  1.00  0.00     0.010 A 
HETATM    2  C   UNL     1      -1.284  -0.230   0.530  1.00  0.00     0.032 A 
HETATM    3  C   UNL     1      -0.551   1.038   0.874  1.00  0.00     0.088 A 
ENDROOT
BRANCH   3   4
HETATM    4  N   UNL     1      -0.287   2.014  -0.125  1.00  0.00    -0.363 N 
HETATM    5  H   UNL     1       0.660   2.181  -0.445  1.00  0.00     0.162 HD
BRANCH   4   6
HETATM    6  C   UNL     1      -1.229   2.892  -0.584  1.00  0.00     0.348 C 
HETATM    7  O   UNL     1      -0.983   3.798  -1.369  1.00  0.00    -0.284 OA
ENDBRANCH   4   6
ENDBRANCH   3   4
BRANCH   1   8
HETATM    8  C   UNL     1       1.206  -0.698  -0.063  1.00  0.00     0.006 C 
BRANCH   8   9
HETATM    9  C   UNL     1       1.571  -2.181   0.052  1.00  0.00    -0.004 C 
HETATM   10  C   UNL     1       0.422  -3.115  -0.302  1.00  0.00     0.005 C 
ENDBRANCH   8   9
ENDBRANCH   1   8
TORSDOF 4
