REMARK  2 active torsions:
REMARK  status: ('A' for Active; 'I' for Inactive)
REMARK    1  A    between atoms: S_2  and  C_3 
REMARK       I    between atoms: C_3  and  N_5 
REMARK    2  A    between atoms: N_5  and  C_6 
ROOT
HETATM    1  C   UNL     1      -0.211  -1.232   0.093  1.00  0.00     0.037 A 
HETATM    2  C   UNL     1       0.006  -2.614   0.080  1.00  0.00     0.031 A 
HETATM    3  C   UNL     1      -1.072  -3.502   0.012  1.00  0.00     0.023 A 
HETATM    4  C   UNL     1      -2.381  -3.017  -0.033  1.00  0.00     0.032 A 
HETATM    5 BR   UNL     1      -3.787  -4.292  -0.071  1.00  0.00    -0.049 Br
HETATM    6  C   UNL     1      -2.607  -1.637  -0.031  1.00  0.00     0.053 A 
HETATM    7 CL   UNL     1      -4.196  -0.957  -0.055  1.00  0.00    -0.083 Cl
HETATM    8  C   UNL     1      -1.523  -0.751   0.022  1.00  0.00     0.054 A 
ENDROOT
BRANCH   1   9
HETATM    9  N   UNL     1       0.916  -0.400   0.248  1.00  0.00    -0.318 N 
HETATM   10  C   UNL     1       0.950   0.971   0.190  1.00  0.00     0.283 C 
HETATM   11  O   UNL     1       0.076   1.729  -0.188  1.00  0.00    -0.260 OA
HETATM   12  H   UNL     1       1.789  -0.844   0.492  1.00  0.00     0.169 HD
BRANCH  10  13
HETATM   13  S   UNL     1       2.467   1.594   0.816  1.00  0.00    -0.073 SA
HETATM   14  C   UNL     1       3.661   0.866  -0.317  1.00  0.00     0.100 C 
ENDBRANCH  10  13
ENDBRANCH   1   9
TORSDOF 2
