REMARK  3 active torsions:
REMARK  status: ('A' for Active; 'I' for Inactive)
REMARK    1  A    between atoms: C_2  and  C_3 
REMARK    2  A    between atoms: C_3  and  N_4 
REMARK    3  A    between atoms: N_4  and  C_5 
REMARK       I    between atoms: N_4  and  C_7 
REMARK       I    between atoms: C_7  and  N_9 
ROOT
HETATM    1  N   UNL     1      -1.678   1.661   0.279  1.00  0.00    -0.300 N 
HETATM    2  C   UNL     1      -2.327   0.625   0.933  1.00  0.00     0.174 C 
HETATM    3  N   UNL     1      -3.508   0.214   0.611  1.00  0.00    -0.273 NA
HETATM    4  N   UNL     1      -1.745  -0.038   1.963  1.00  0.00    -0.272 NA
HETATM    5  H   UNL     1      -3.857   0.778  -0.183  1.00  0.00     0.189 HD
HETATM    6  H   UNL     1      -2.339  -0.826   2.211  1.00  0.00     0.127 HD
HETATM    7  H   UNL     1      -0.803  -0.356   1.786  1.00  0.00     0.127 HD
ENDROOT
BRANCH   1   8
HETATM    8  C   UNL     1      -0.365   2.138   0.742  1.00  0.00     0.133 C 
BRANCH   8   9
HETATM    9  C   UNL     1       0.866   1.500   0.000  1.00  0.00     0.016 C 
HETATM   10  C   UNL     1       0.866   0.500   0.000  1.00  0.00     0.006 C 
ENDBRANCH   8   9
ENDBRANCH   1   8
BRANCH   1  11
HETATM   11  C   UNL     1      -2.239   2.309  -0.819  1.00  0.00     0.357 C 
HETATM   12  O   UNL     1      -3.319   2.064  -1.344  1.00  0.00    -0.283 OA
ENDBRANCH   1  11
TORSDOF 3
