REMARK  3 active torsions:
REMARK  status: ('A' for Active; 'I' for Inactive)
REMARK    1  A    between atoms: N_1  and  C_2 
REMARK    2  A    between atoms: C_4  and  O_5 
REMARK    3  A    between atoms: O_5  and  C_6 
ROOT
HETATM    1  C   UNL     1      -0.696  -0.876  -0.000  1.00  0.00     0.097 A 
HETATM    2  C   UNL     1      -1.866  -0.216  -0.000  1.00  0.00     0.073 A 
HETATM    3  C   UNL     1      -1.933   1.229  -0.000  1.00  0.00     0.096 A 
HETATM    4  C   UNL     1      -0.794   1.940   0.000  1.00  0.00     0.128 A 
HETATM    5  N   UNL     1       0.427   1.308  -0.000  1.00  0.00    -0.329 N 
HETATM    6  C   UNL     1       0.584  -0.057  -0.000  1.00  0.00     0.271 A 
HETATM    7  O   UNL     1       1.689  -0.593  -0.000  1.00  0.00    -0.266 OA
HETATM    8  H   UNL     1       1.282   1.851   0.000  1.00  0.00     0.168 HD
ENDROOT
BRANCH   1   9
HETATM    9  N   UNL     1      -0.593  -2.243  -0.000  1.00  0.00    -0.395 N 
HETATM   10  H   UNL     1      -1.411  -2.835   0.000  1.00  0.00     0.156 HD
HETATM   11  H   UNL     1       0.342  -2.642   0.000  1.00  0.00     0.156 HD
ENDBRANCH   1   9
BRANCH   3  12
HETATM   12  O   UNL     1      -3.177   1.916   0.000  1.00  0.00    -0.284 OA
BRANCH  12  13
HETATM   13  C   UNL     1      -4.402   1.336  -0.000  1.00  0.00     0.403 C 
HETATM   14  O   UNL     1      -5.454   1.960   0.000  1.00  0.00    -0.276 OA
ENDBRANCH  12  13
ENDBRANCH   3  12
TORSDOF 3
