REMARK  5 active torsions:
REMARK  status: ('A' for Active; 'I' for Inactive)
REMARK    1  A    between atoms: S_2  and  C_3 
REMARK    2  A    between atoms: C_3  and  C_5 
REMARK    3  A    between atoms: C_5  and  C_6 
REMARK    4  A    between atoms: C_6  and  C_7 
REMARK    5  A    between atoms: C_7  and  C_8 
ROOT
HETATM    1  C   UNL     1      -1.201   1.577  -0.050  1.00  0.00     0.013 C 
ENDROOT
BRANCH   1   2
HETATM    2  C   UNL     1      -1.108   2.260   1.318  1.00  0.00     0.091 C 
BRANCH   2   3
HETATM    3  C   UNL     1      -0.074   3.358   1.421  1.00  0.00     0.185 C 
HETATM    4  O   UNL     1       0.844   3.330   2.232  1.00  0.00    -0.286 OA
BRANCH   3   5
HETATM    5  S   UNL     1      -0.277   4.727   0.331  1.00  0.00    -0.097 SA
HETATM    6  C   UNL     1       1.439   4.886  -0.222  1.00  0.00     0.098 C 
ENDBRANCH   3   5
ENDBRANCH   2   3
ENDBRANCH   1   2
BRANCH   1   7
HETATM    7  C   UNL     1       0.124   1.095  -0.654  1.00  0.00     0.061 C 
BRANCH   7   8
HETATM    8  C   UNL     1       0.804  -0.068   0.010  1.00  0.00     0.182 A 
HETATM    9  N   UNL     1       0.351  -0.578   1.262  1.00  0.00    -0.159 NA
HETATM   10  N   UNL     1       0.015  -1.236   0.264  1.00  0.00    -0.159 NA
HETATM   11  C   UNL     1       2.246  -0.288  -0.341  1.00  0.00     0.071 C 
ENDBRANCH   7   8
ENDBRANCH   1   7
TORSDOF 5
