REMARK  5 active torsions:
REMARK  status: ('A' for Active; 'I' for Inactive)
REMARK    1  A    between atoms: S_2  and  C_3 
REMARK    2  A    between atoms: C_3  and  N_5 
REMARK    3  A    between atoms: N_5  and  C_6 
REMARK    4  A    between atoms: C_9  and  N_10 
REMARK    5  A    between atoms: C_13  and  C_14 
ROOT
HETATM    1  C   UNL     1      -0.822   0.808  -0.469  1.00  0.00     0.034 A 
HETATM    2  C   UNL     1      -2.087   1.404  -0.482  1.00  0.00     0.032 A 
HETATM    3  C   UNL     1      -2.226   2.784  -0.350  1.00  0.00     0.039 A 
HETATM    4  C   UNL     1      -1.087   3.581  -0.176  1.00  0.00     0.118 A 
HETATM    5  C   UNL     1       0.195   3.018  -0.122  1.00  0.00     0.083 A 
HETATM    6  C   UNL     1       0.308   1.620  -0.287  1.00  0.00     0.048 A 
ENDROOT
BRANCH   1   7
HETATM    7  N   UNL     1      -0.790  -0.600  -0.525  1.00  0.00    -0.344 N 
HETATM    8  H   UNL     1      -1.660  -1.057  -0.278  1.00  0.00     0.167 HD
BRANCH   7   9
HETATM    9  C   UNL     1       0.254  -1.465  -0.749  1.00  0.00     0.107 C 
HETATM   10  S   UNL     1       1.671  -1.174  -1.590  1.00  0.00    -0.056 SA
BRANCH   9  11
HETATM   11  S   UNL     1       0.000  -3.000   0.000  1.00  0.00    -0.239 SA
HETATM   12  C   UNL     1      -0.866  -3.500   0.000  1.00  0.00     0.268 C 
ENDBRANCH   9  11
ENDBRANCH   7   9
ENDBRANCH   1   7
BRANCH   5  13
HETATM   13  C   UNL     1       1.429   3.843   0.144  1.00  0.00     0.419 C 
HETATM   14  F   UNL     1       1.887   4.486  -0.959  1.00  0.00    -0.166 F 
HETATM   15  F   UNL     1       1.235   4.787   1.105  1.00  0.00    -0.166 F 
HETATM   16  F   UNL     1       2.475   3.092   0.594  1.00  0.00    -0.166 F 
ENDBRANCH   5  13
BRANCH   4  17
HETATM   17  N   UNL     1      -1.291   5.018  -0.038  1.00  0.00    -0.115 N 
HETATM   18  O   UNL     1      -0.600   5.751  -0.751  1.00  0.00    -0.532 OA
HETATM   19  O   UNL     1      -2.167   5.388   0.753  1.00  0.00    -0.532 OA
ENDBRANCH   4  17
TORSDOF 5
