REMARK  4 active torsions:
REMARK  status: ('A' for Active; 'I' for Inactive)
REMARK    1  A    between atoms: N_1  and  C_2 
REMARK    2  A    between atoms: C_2  and  C_3 
REMARK    3  A    between atoms: C_7  and  O_8 
REMARK    4  A    between atoms: O_8  and  C_9 
ROOT
HETATM    1  C   UNL     1       1.070  -0.436  -0.023  1.00  0.00    -0.010 A 
HETATM    2  C   UNL     1       1.052  -1.827  -0.024  1.00  0.00     0.125 A 
HETATM    3  N   UNL     1      -0.075  -2.580   0.014  1.00  0.00    -0.270 NA
HETATM    4  C   UNL     1      -1.258  -1.922   0.038  1.00  0.00     0.153 A 
HETATM    5  C   UNL     1      -1.353  -0.541   0.033  1.00  0.00     0.096 A 
HETATM    6  C   UNL     1      -0.175   0.207   0.012  1.00  0.00     0.049 A 
ENDROOT
BRANCH   1   7
HETATM    7  C   UNL     1       2.329   0.389  -0.018  1.00  0.00     0.306 C 
BRANCH   7   8
HETATM    8  N   UNL     1       3.549  -0.353  -0.315  1.00  0.00     0.082 N 
HETATM    9  H   UNL     1       3.763  -0.975   0.463  1.00  0.00     0.313 HD
HETATM   10  H   UNL     1       4.329   0.301  -0.363  1.00  0.00     0.313 HD
ENDBRANCH   7   8
ENDBRANCH   1   7
BRANCH   5  11
HETATM   11  O   UNL     1      -2.545   0.211   0.052  1.00  0.00    -0.284 OA
BRANCH  11  12
HETATM   12  C   UNL     1      -3.821  -0.335  -0.008  1.00  0.00     0.403 C 
HETATM   13  O   UNL     1      -4.140  -1.509  -0.067  1.00  0.00    -0.276 OA
ENDBRANCH  11  12
ENDBRANCH   5  11
TORSDOF 4
