REMARK  3 active torsions:
REMARK  status: ('A' for Active; 'I' for Inactive)
REMARK    1  A    between atoms: S_2  and  C_3 
REMARK    2  A    between atoms: C_3  and  N_5 
REMARK    3  A    between atoms: N_5  and  C_6 
ROOT
HETATM    1  C   UNL     1       0.207  -0.310   0.843  1.00  0.00     0.033 C 
HETATM    2  C   UNL     1      -0.693   0.898   0.504  1.00  0.00     0.035 C 
HETATM    3  C   UNL     1      -1.940   0.449  -0.278  1.00  0.00    -0.011 C 
HETATM    4  C   UNL     1      -1.496  -0.244  -1.575  1.00  0.00     0.014 C 
HETATM    5  C   UNL     1      -0.634  -1.488  -1.258  1.00  0.00    -0.041 C 
HETATM    6  C   UNL     1      -0.190  -2.167  -2.557  1.00  0.00     0.015 C 
HETATM    7  C   UNL     1       0.608  -1.046  -0.456  1.00  0.00     0.040 C 
HETATM    8  C   UNL     1      -1.457  -2.460  -0.389  1.00  0.00     0.018 C 
HETATM    9  C   UNL     1      -1.904  -1.771   0.922  1.00  0.00    -0.041 C 
HETATM   10  C   UNL     1      -2.715  -2.746   1.776  1.00  0.00     0.015 C 
HETATM   11  C   UNL     1      -2.757  -0.535   0.570  1.00  0.00     0.014 C 
HETATM   12  C   UNL     1      -0.650  -1.300   1.688  1.00  0.00     0.040 C 
ENDROOT
BRANCH   1  13
HETATM   13  N   UNL     1       1.376   0.074   1.670  1.00  0.00    -0.366 N 
HETATM   14  H   UNL     1       1.340  -0.247   2.633  1.00  0.00     0.161 HD
BRANCH  13  15
HETATM   15  C   UNL     1       2.524   0.780   1.443  1.00  0.00     0.134 C 
HETATM   16  S   UNL     1       3.610   0.937   2.705  1.00  0.00    -0.053 SA
BRANCH  15  17
HETATM   17  S   UNL     1       2.839   1.430  -0.139  1.00  0.00    -0.105 SA
HETATM   18  C   UNL     1       2.112   3.067   0.044  1.00  0.00     0.098 C 
ENDBRANCH  15  17
ENDBRANCH  13  15
ENDBRANCH   1  13
TORSDOF 3
