REMARK  3 active torsions:
REMARK  status: ('A' for Active; 'I' for Inactive)
REMARK    1  A    between atoms: C_2  and  O_3 
REMARK    2  A    between atoms: C_2  and  C_6 
REMARK    3  A    between atoms: O_3  and  C_4 
ROOT
HETATM    1  C   UNL     1      -0.989  -0.320  -0.076  1.00  0.00     0.154 A 
HETATM    2  N   UNL     1      -2.216   0.230   0.037  1.00  0.00    -0.243 NA
HETATM    3  C   UNL     1      -2.279   1.573   0.108  1.00  0.00     0.120 A 
HETATM    4  C   UNL     1      -1.176   2.389   0.059  1.00  0.00     0.038 A 
HETATM    5  C   UNL     1       0.029   1.742  -0.068  1.00  0.00     0.120 A 
HETATM    6  N   UNL     1       0.151   0.403  -0.148  1.00  0.00    -0.243 NA
ENDROOT
BRANCH   1   7
HETATM    7  C   UNL     1      -0.869  -1.830  -0.256  1.00  0.00     0.198 C 
HETATM    8  C   UNL     1      -2.174  -2.574   0.025  1.00  0.00     0.048 C 
BRANCH   7   9
HETATM    9  O   UNL     1       0.119  -2.417   0.623  1.00  0.00    -0.316 OA
BRANCH   9  10
HETATM   10  C   UNL     1       1.409  -2.319   0.239  1.00  0.00     0.398 C 
HETATM   11  O   UNL     1       2.322  -2.932   0.778  1.00  0.00    -0.276 OA
ENDBRANCH   9  10
ENDBRANCH   7   9
ENDBRANCH   1   7
TORSDOF 3
