REMARK  3 active torsions:
REMARK  status: ('A' for Active; 'I' for Inactive)
REMARK    1  A    between atoms: S_2  and  C_3 
REMARK    2  A    between atoms: N_5  and  C_6 
REMARK    3  A    between atoms: C_6  and  C_8 
ROOT
HETATM    1  C   UNL     1       1.732   0.000   0.000  1.00  0.00     0.083 C 
HETATM    2  C   UNL     1       1.732   1.000   0.000  1.00  0.00     0.032 C 
ENDROOT
BRANCH   1   3
HETATM    3  N   UNL     1       2.274  -0.529   1.307  1.00  0.00    -0.373 N 
HETATM    4  C   UNL     1       3.594  -0.291   1.538  1.00  0.00     0.103 C 
HETATM    5  S   UNL     1       4.263  -0.047   3.027  1.00  0.00    -0.056 SA
HETATM    6  H   UNL     1       1.698  -0.454   2.141  1.00  0.00     0.161 HD
BRANCH   4   7
HETATM    7  S   UNL     1       4.330  -0.500   0.000  1.00  0.00    -0.239 SA
HETATM    8  C   UNL     1       4.330  -1.500   0.000  1.00  0.00     0.268 C 
ENDBRANCH   4   7
ENDBRANCH   1   3
BRANCH   1   9
HETATM    9  C   UNL     1       0.239  -0.616  -0.006  1.00  0.00     0.008 C 
HETATM   10  C   UNL     1      -0.835   0.254  -0.702  1.00  0.00     0.007 C 
HETATM   11  C   UNL     1      -2.032  -0.542  -1.227  1.00  0.00     0.000 C 
HETATM   12  C   UNL     1      -2.318  -1.782  -0.388  1.00  0.00     0.000 C 
HETATM   13  C   UNL     1      -1.126  -2.737  -0.349  1.00  0.00     0.000 C 
HETATM   14  C   UNL     1       0.226  -2.052  -0.564  1.00  0.00     0.007 C 
ENDBRANCH   1   9
TORSDOF 3
