REMARK  1 active torsions:
REMARK  status: ('A' for Active; 'I' for Inactive)
REMARK    1  A    between atoms: C_14  and  C_15 
ROOT
HETATM    1  O   UNL     1       3.565  -3.046   0.075  1.00  0.00    -0.284 OA
HETATM    2  C   UNL     1       3.363  -1.805   0.002  1.00  0.00     0.220 C 
HETATM    3  C   UNL     1       4.185  -0.743  -0.118  1.00  0.00     0.192 C 
HETATM    4  O   UNL     1       3.847   0.595  -0.197  1.00  0.00    -0.354 OA
HETATM    5  C   UNL     1       2.447   0.963  -0.039  1.00  0.00     0.216 C 
HETATM    6  C   UNL     1       1.486  -0.169   0.016  1.00  0.00     0.010 A 
HETATM    7  C   UNL     1       1.997  -1.440   0.036  1.00  0.00     0.094 A 
HETATM    8  N   UNL     1       0.972  -2.329   0.064  1.00  0.00    -0.352 N 
HETATM    9  C   UNL     1      -0.229  -1.656   0.032  1.00  0.00     0.044 A 
HETATM   10  C   UNL     1      -1.527  -2.175  -0.007  1.00  0.00     0.033 A 
HETATM   11  C   UNL     1      -2.578  -1.266  -0.053  1.00  0.00     0.045 A 
HETATM   12  C   UNL     1      -2.326   0.100  -0.021  1.00  0.00     0.132 A 
HETATM   13  F   UNL     1      -3.382   0.927  -0.074  1.00  0.00    -0.205 F 
HETATM   14  C   UNL     1      -1.029   0.638   0.059  1.00  0.00     0.099 A 
HETATM   15  C   UNL     1       0.057  -0.277   0.042  1.00  0.00     0.019 A 
HETATM   16  H   UNL     1       1.146  -3.325   0.074  1.00  0.00     0.166 HD
ENDROOT
BRANCH  14  17
HETATM   17  C   UNL     1      -0.906   2.129   0.118  1.00  0.00     0.421 C 
HETATM   18  F   UNL     1      -0.992   2.716  -1.110  1.00  0.00    -0.166 F 
HETATM   19  F   UNL     1      -1.875   2.726   0.877  1.00  0.00    -0.166 F 
HETATM   20  F   UNL     1       0.265   2.577   0.654  1.00  0.00    -0.166 F 
ENDBRANCH  14  17
TORSDOF 1
