REMARK  2 active torsions:
REMARK  status: ('A' for Active; 'I' for Inactive)
REMARK    1  A    between atoms: C_2  and  O_3 
REMARK    2  A    between atoms: O_3  and  C_4 
ROOT
HETATM    1  C   UNL     1       0.947  -0.584   0.245  1.00  0.00     0.291 C 
HETATM    2  C   UNL     1       0.350  -1.908  -0.179  1.00  0.00     0.079 C 
HETATM    3  C   UNL     1      -1.145  -1.693  -0.100  1.00  0.00     0.122 C 
HETATM    4  N   UNL     1      -1.359  -0.311   0.322  1.00  0.00    -0.203 NA
HETATM    5  O   UNL     1      -0.104   0.359  -0.022  1.00  0.00    -0.273 OA
HETATM    6  H   UNL     1      -2.008   0.141  -0.326  1.00  0.00     0.153 HD
ENDROOT
BRANCH   1   7
HETATM    7  O   UNL     1       2.106  -0.257  -0.524  1.00  0.00    -0.295 OA
BRANCH   7   8
HETATM    8  C   UNL     1       3.241  -0.855  -0.105  1.00  0.00     0.400 C 
HETATM    9  O   UNL     1       3.350  -1.645   0.818  1.00  0.00    -0.276 OA
ENDBRANCH   7   8
ENDBRANCH   1   7
TORSDOF 2
