REMARK  2 active torsions:
REMARK  status: ('A' for Active; 'I' for Inactive)
REMARK    1  A    between atoms: N_4  and  C_5 
REMARK    2  A    between atoms: C_9  and  C_10 
ROOT
HETATM    1  C   UNL     1      -2.965  -2.101  -0.114  1.00  0.00     0.055 A 
HETATM    2  C   UNL     1      -3.008  -3.499  -0.042  1.00  0.00     0.031 A 
HETATM    3  C   UNL     1      -4.238  -4.159   0.020  1.00  0.00     0.003 A 
HETATM    4  C   UNL     1      -5.427  -3.431   0.004  1.00  0.00     0.016 A 
HETATM    5  C   UNL     1      -5.407  -2.032  -0.083  1.00  0.00     0.050 A 
HETATM    6  C   UNL     1      -4.166  -1.371  -0.131  1.00  0.00     0.047 A 
ENDROOT
BRANCH   1   7
HETATM    7  N   UNL     1      -1.726  -1.411  -0.124  1.00  0.00    -0.247 N 
HETATM    8  C   UNL     1      -0.450  -1.926  -0.098  1.00  0.00     0.142 A 
HETATM    9  C   UNL     1       0.369  -0.832   0.061  1.00  0.00     0.065 A 
HETATM   10  C   UNL     1       1.829  -0.777   0.268  1.00  0.00     0.073 C 
HETATM   11  N   UNL     1      -0.390   0.301   0.036  1.00  0.00    -0.163 NA
HETATM   12  N   UNL     1      -1.659  -0.057  -0.103  1.00  0.00     0.009 NA
ENDBRANCH   1   7
BRANCH   5  13
HETATM   13  C   UNL     1      -6.697  -1.248  -0.078  1.00  0.00     0.417 C 
HETATM   14  F   UNL     1      -7.162  -1.026   1.182  1.00  0.00    -0.166 F 
HETATM   15  F   UNL     1      -7.703  -1.887  -0.740  1.00  0.00    -0.166 F 
HETATM   16  F   UNL     1      -6.590  -0.024  -0.662  1.00  0.00    -0.166 F 
ENDBRANCH   5  13
TORSDOF 2
