REMARK  6 active torsions:
REMARK  status: ('A' for Active; 'I' for Inactive)
REMARK    1  A    between atoms: C_2  and  O_3 
REMARK    2  A    between atoms: C_5  and  C_6 
REMARK    3  A    between atoms: C_6  and  C_7 
REMARK    4  A    between atoms: C_7  and  N_8 
REMARK       I    between atoms: N_8  and  C_9 
REMARK    5  A    between atoms: C_9  and  S_11 
REMARK    6  A    between atoms: O_16  and  C_17 
ROOT
HETATM    1  O   UNL     1       1.000  -1.000   0.000  1.00  0.00     0.000 OA
HETATM    2 SI   UNL     1       1.000   0.000   0.000  1.00  0.00     0.000 Si
HETATM    3  C   UNL     1       2.000   0.000   0.000  1.00  0.00     0.001 A 
HETATM    4  O   UNL     1       1.000   1.000   0.000  1.00  0.00     0.000 OA
HETATM    5  C   UNL     1       1.866   1.500   0.000  1.00  0.00    -0.005 A 
HETATM    6  C   UNL     1       1.866   2.500   0.000  1.00  0.00     0.005 C 
HETATM    7  O   UNL     1       0.000   0.000   0.000  1.00  0.00     0.000 OA
ENDROOT
BRANCH   3   8
HETATM    8  C   UNL     1       3.592  -0.101   0.220  1.00  0.00     0.015 C 
BRANCH   8   9
HETATM    9  C   UNL     1       4.562  -1.013  -0.505  1.00  0.00     0.096 C 
BRANCH   9  10
HETATM   10  N   UNL     1       5.570  -0.061  -0.952  1.00  0.00    -0.256 NA
HETATM   11  C   UNL     1       5.925   0.737   0.155  1.00  0.00     0.228 C 
HETATM   12  O   UNL     1       6.447   0.302   1.158  1.00  0.00    -0.270 OA
HETATM   13  H   UNL     1       5.286   0.480  -1.746  1.00  0.00     0.131 HD
BRANCH  11  14
HETATM   14  S   UNL     1       5.500   2.598   0.000  1.00  0.00    -0.218 SA
HETATM   15  C   UNL     1       6.500   2.598   0.000  1.00  0.00     0.274 C 
ENDBRANCH  11  14
ENDBRANCH   9  10
ENDBRANCH   8   9
ENDBRANCH   3   8
BRANCH   1  16
HETATM   16  C   UNL     1       0.197  -2.248  -0.158  1.00  0.00    -0.005 C 
HETATM   17  C   UNL     1      -1.350  -2.210   0.121  1.00  0.00     0.005 C 
ENDBRANCH   1  16
BRANCH   7  18
HETATM   18  C   UNL     1      -1.241   0.880  -0.100  1.00  0.00    -0.005 C 
HETATM   19  C   UNL     1      -1.214   2.435   0.102  1.00  0.00     0.005 C 
ENDBRANCH   7  18
TORSDOF 6
