REMARK  4 active torsions:
REMARK  status: ('A' for Active; 'I' for Inactive)
REMARK    1  A    between atoms: S_2  and  C_3 
REMARK    2  A    between atoms: C_3  and  C_5 
REMARK    3  A    between atoms: C_5  and  C_6 
REMARK    4  A    between atoms: C_6  and  C_8 
ROOT
HETATM    1  C   UNL     1       1.260   0.971  -1.198  1.00  0.00     0.051 C 
ENDROOT
BRANCH   1   2
HETATM    2  C   UNL     1       2.635   1.411  -1.455  1.00  0.00     0.175 C 
HETATM    3  O   UNL     1       3.070   1.961  -2.440  1.00  0.00    -0.284 OA
BRANCH   2   4
HETATM    4  S   UNL     1       3.464   1.000   0.000  1.00  0.00    -0.229 SA
HETATM    5  C   UNL     1       3.464   0.000   0.000  1.00  0.00     0.271 C 
ENDBRANCH   2   4
ENDBRANCH   1   2
BRANCH   1   6
HETATM    6  C   UNL     1       0.866   1.500   0.000  1.00  0.00     0.056 C 
HETATM    7  C   UNL     1       0.866   2.500   0.000  1.00  0.00     0.029 C 
BRANCH   6   8
HETATM    8  C   UNL     1      -0.257   0.565   0.406  1.00  0.00     0.136 C 
HETATM    9  C   UNL     1      -1.694   0.930   0.050  1.00  0.00     0.092 C 
HETATM   10  O   UNL     1       0.018  -0.508   0.940  1.00  0.00    -0.297 OA
ENDBRANCH   6   8
ENDBRANCH   1   6
TORSDOF 4
