REMARK  2 active torsions:
REMARK  status: ('A' for Active; 'I' for Inactive)
REMARK    1  A    between atoms: C_2  and  C_3 
REMARK    2  A    between atoms: C_6  and  S_7 
ROOT
HETATM    1  C   UNL     1       0.292  -0.406  -0.071  1.00  0.00     0.002 A 
HETATM    2  C   UNL     1      -0.315  -1.646  -0.000  1.00  0.00     0.133 A 
HETATM    3  N   UNL     1      -1.700  -1.644  -0.021  1.00  0.00    -0.245 NA
HETATM    4  C   UNL     1      -2.136  -0.409  -0.096  1.00  0.00     0.134 A 
HETATM    5  S   UNL     1      -0.927   0.804  -0.166  1.00  0.00    -0.067 SA
ENDROOT
BRANCH   1   6
HETATM    6  C   UNL     1       1.734  -0.000  -0.074  1.00  0.00     0.043 C 
HETATM    7  C   UNL     1       2.710  -1.164  -0.136  1.00  0.00     0.010 C 
ENDBRANCH   1   6
BRANCH   4   8
HETATM    8  S   UNL     1      -3.841  -0.003  -0.098  1.00  0.00    -0.107 SA
HETATM    9  C   UNL     1      -4.596  -1.625   0.124  1.00  0.00     0.097 C 
ENDBRANCH   4   8
TORSDOF 2
