REMARK  2 active torsions:
REMARK  status: ('A' for Active; 'I' for Inactive)
REMARK    1  A    between atoms: S_2  and  C_3 
REMARK       I    between atoms: C_3  and  N_5 
REMARK    2  A    between atoms: N_5  and  C_6 
ROOT
HETATM    1  C   UNL     1       0.918  -0.750  -0.057  1.00  0.00     0.037 A 
HETATM    2  C   UNL     1       0.834  -2.140  -0.076  1.00  0.00     0.030 A 
HETATM    3  C   UNL     1      -0.407  -2.798  -0.082  1.00  0.00     0.016 A 
HETATM    4  C   UNL     1      -1.593  -2.046  -0.064  1.00  0.00    -0.008 A 
HETATM    5  C   UNL     1      -2.974  -2.382  -0.075  1.00  0.00     0.031 A 
HETATM    6  C   UNL     1      -3.690  -1.206  -0.043  1.00  0.00     0.091 A 
HETATM    7  N   UNL     1      -2.796  -0.171  -0.003  1.00  0.00    -0.360 N 
HETATM    8  C   UNL     1      -3.164   1.226   0.038  1.00  0.00     0.155 C 
HETATM    9  C   UNL     1      -1.503  -0.655  -0.020  1.00  0.00     0.046 A 
HETATM   10  C   UNL     1      -0.264   0.008  -0.004  1.00  0.00     0.060 A 
ENDROOT
BRANCH   1  11
HETATM   11  N   UNL     1       2.117  -0.014  -0.022  1.00  0.00    -0.318 N 
HETATM   12  C   UNL     1       3.430  -0.297  -0.281  1.00  0.00     0.283 C 
HETATM   13  O   UNL     1       4.296   0.513   0.038  1.00  0.00    -0.260 OA
HETATM   14  H   UNL     1       2.027   0.954   0.260  1.00  0.00     0.169 HD
BRANCH  12  15
HETATM   15  S   UNL     1       3.863  -1.723  -1.185  1.00  0.00    -0.073 SA
HETATM   16  C   UNL     1       4.742  -2.592   0.129  1.00  0.00     0.100 C 
ENDBRANCH  12  15
ENDBRANCH   1  11
TORSDOF 2
