REMARK  2 active torsions:
REMARK  status: ('A' for Active; 'I' for Inactive)
REMARK    1  A    between atoms: N_4  and  C_5 
REMARK    2  A    between atoms: C_5  and  N_6 
ROOT
HETATM    1  N   UNL     1       3.626   2.153   1.681  1.00  0.00    -0.060 NA
HETATM    2  N   UNL     1       3.480   3.331   1.314  1.00  0.00    -0.164 NA
HETATM    3  N   UNL     1       3.352   4.419   1.005  1.00  0.00     0.068 N 
ENDROOT
BRANCH   1   4
HETATM    4  C   UNL     1       3.418   1.071   0.667  1.00  0.00     0.339 C 
HETATM    5  C   UNL     1       3.971  -0.186   1.351  1.00  0.00     0.291 C 
HETATM    6  N   UNL     1       5.136  -0.719   0.863  1.00  0.00    -0.275 N 
HETATM    7  O   UNL     1       3.469  -0.687   2.361  1.00  0.00    -0.267 OA
HETATM    8  C   UNL     1       5.922  -0.197  -0.113  1.00  0.00     0.329 C 
HETATM    9  H   UNL     1       5.510  -1.514   1.365  1.00  0.00     0.173 HD
HETATM   10  N   UNL     1       5.410   0.854  -0.806  1.00  0.00    -0.275 N 
HETATM   11  O   UNL     1       7.036  -0.643  -0.357  1.00  0.00    -0.247 OA
HETATM   12  C   UNL     1       4.194   1.447  -0.602  1.00  0.00     0.291 C 
HETATM   13  H   UNL     1       5.950   1.177  -1.598  1.00  0.00     0.173 HD
HETATM   14  O   UNL     1       3.819   2.324  -1.384  1.00  0.00    -0.267 OA
BRANCH   4  15
HETATM   15  N   UNL     1       2.020   0.815   0.310  1.00  0.00    -0.233 N 
HETATM   16  C   UNL     1       0.892   1.537   0.582  1.00  0.00     0.140 A 
HETATM   17  C   UNL     1      -0.105   0.875  -0.100  1.00  0.00     0.065 A 
HETATM   18  C   UNL     1      -1.535   1.205  -0.254  1.00  0.00     0.073 C 
HETATM   19  N   UNL     1       0.428  -0.224  -0.716  1.00  0.00    -0.164 NA
HETATM   20  N   UNL     1       1.728  -0.251  -0.467  1.00  0.00     0.008 NA
ENDBRANCH   4  15
ENDBRANCH   1   4
TORSDOF 2
