REMARK  3 active torsions:
REMARK  status: ('A' for Active; 'I' for Inactive)
REMARK    1  A    between atoms: S_2  and  C_3 
REMARK    2  A    between atoms: C_3  and  C_5 
REMARK    3  A    between atoms: C_8  and  C_9 
REMARK       I    between atoms: C_9  and  N_10 
ROOT
HETATM    1  C   UNL     1       1.040  -0.848  -0.510  1.00  0.00     0.080 C 
HETATM    2  C   UNL     1       1.365   0.433   0.289  1.00  0.00     0.015 C 
HETATM    3  C   UNL     1       2.823   0.318  -0.165  1.00  0.00     0.015 C 
HETATM    4  C   UNL     1       2.567  -1.168  -0.538  1.00  0.00     0.089 C 
ENDROOT
BRANCH   4   5
HETATM    5  C   UNL     1       3.228  -2.225   0.387  1.00  0.00     0.220 C 
HETATM    6  N   UNL     1       2.801  -3.517   0.239  1.00  0.00    -0.370 N 
HETATM    7  H   UNL     1       1.832  -3.692   0.001  1.00  0.00     0.159 HD
HETATM    8  H   UNL     1       3.173  -4.150   0.937  1.00  0.00     0.159 HD
HETATM    9  O   UNL     1       4.137  -1.999   1.188  1.00  0.00    -0.273 OA
ENDBRANCH   4   5
BRANCH   1  10
HETATM   10  C   UNL     1       0.047  -1.852   0.138  1.00  0.00     0.190 C 
HETATM   11  O   UNL     1       0.276  -2.654   1.033  1.00  0.00    -0.285 OA
BRANCH  10  12
HETATM   12  S   UNL     1      -1.558  -1.832  -0.598  1.00  0.00    -0.097 SA
HETATM   13  C   UNL     1      -2.212  -0.362   0.218  1.00  0.00     0.098 C 
ENDBRANCH  10  12
ENDBRANCH   1  10
TORSDOF 3
