REMARK  4 active torsions:
REMARK  status: ('A' for Active; 'I' for Inactive)
REMARK    1  A    between atoms: N_4  and  C_5 
REMARK    2  A    between atoms: C_8  and  O_9 
REMARK    3  A    between atoms: C_10  and  C_11 
REMARK    4  A    between atoms: C_11  and  O_13 
ROOT
HETATM    1  C   UNL     1      -2.934  -2.088  -0.000  1.00  0.00     0.055 A 
HETATM    2  C   UNL     1      -2.977  -3.486   0.000  1.00  0.00     0.034 A 
HETATM    3  C   UNL     1      -4.200  -4.141   0.000  1.00  0.00     0.040 A 
HETATM    4  C   UNL     1      -5.383  -3.404  -0.000  1.00  0.00     0.082 A 
HETATM    5  C   UNL     1      -5.352  -2.002  -0.000  1.00  0.00     0.072 A 
HETATM    6  C   UNL     1      -4.119  -1.346   0.000  1.00  0.00     0.052 A 
ENDROOT
BRANCH   1   7
HETATM    7  N   UNL     1      -1.702  -1.402   0.000  1.00  0.00    -0.247 N 
HETATM    8  C   UNL     1      -0.445  -1.940  -0.000  1.00  0.00     0.142 A 
HETATM    9  C   UNL     1       0.407  -0.862   0.000  1.00  0.00     0.065 A 
HETATM   10  C   UNL     1       1.846  -0.826  -0.000  1.00  0.00     0.073 C 
HETATM   11  N   UNL     1      -0.337   0.286  -0.000  1.00  0.00    -0.163 NA
HETATM   12  N   UNL     1      -1.618  -0.052  -0.000  1.00  0.00     0.009 NA
ENDBRANCH   1   7
BRANCH   5  13
HETATM   13  C   UNL     1      -6.550  -1.136   0.000  1.00  0.00     0.179 C 
HETATM   14  O   UNL     1      -6.561   0.080   0.000  1.00  0.00    -0.646 OA
BRANCH  13  15
HETATM   15  O   UNL     1      -7.700  -1.836   0.000  1.00  0.00    -0.773 OA
HETATM   16  H   UNL     1      -8.372  -1.117  -0.000  1.00  0.00     0.167 HD
ENDBRANCH  13  15
ENDBRANCH   5  13
BRANCH   4  17
HETATM   17  O   UNL     1      -6.534  -4.141   0.000  1.00  0.00    -0.360 OA
HETATM   18  H   UNL     1      -7.284  -3.511  -0.000  1.00  0.00     0.217 HD
ENDBRANCH   4  17
TORSDOF 4
