REMARK  13 active torsions:
REMARK  status: ('A' for Active; 'I' for Inactive)
REMARK    1  A    between atoms: C_2  and  C_4 
REMARK    2  A    between atoms: C_4  and  C_5 
REMARK    3  A    between atoms: C_5  and  C_7 
REMARK    4  A    between atoms: C_7  and  O_8 
REMARK    5  A    between atoms: C_7  and  C_9 
REMARK    6  A    between atoms: C_9  and  C_19 
REMARK    7  A    between atoms: C_11  and  N_14 
REMARK    8  A    between atoms: C_19  and  C_20 
REMARK    9  A    between atoms: C_19  and  C_23 
REMARK   10  A    between atoms: C_20  and  C_21 
REMARK   11  A    between atoms: C_21  and  O_22 
REMARK   12  A    between atoms: C_23  and  C_25 
REMARK   13  A    between atoms: C_30  and  O_31 
ROOT
HETATM    1  C   UNL     1       3.464   0.000   0.000  1.00  0.00     0.034 A 
HETATM    2  C   UNL     1       4.450  -0.376  -0.826  1.00  0.00     0.027 A 
HETATM    3  C   UNL     1       4.330  -1.500   0.000  1.00  0.00     0.041 A 
HETATM    4  C   UNL     1       3.830  -2.366   0.000  1.00  0.00     0.039 C 
HETATM    5  C   UNL     1       3.330  -1.500   0.000  1.00  0.00     0.049 A 
ENDROOT
BRANCH   1   6
HETATM    6  C   UNL     1       3.464   1.000   0.000  1.00  0.00     0.200 C 
BRANCH   6   7
HETATM    7  C   UNL     1       4.315   1.348   1.407  1.00  0.00     0.163 C 
HETATM    8  O   UNL     1       4.623   0.606   2.337  1.00  0.00    -0.295 OA
BRANCH   7   9
HETATM    9  C   UNL     1       4.619   2.871   1.422  1.00  0.00     0.158 C 
BRANCH   9  10
HETATM   10  C   UNL     1       5.196   3.000   0.000  1.00  0.00     0.130 C 
HETATM   11  C   UNL     1       6.062   2.500   0.000  1.00  0.00     0.091 C 
HETATM   12  O   UNL     1       4.677   3.724  -0.845  1.00  0.00    -0.298 OA
ENDBRANCH   9  10
ENDBRANCH   7   9
ENDBRANCH   6   7
BRANCH   6  13
HETATM   13  O   UNL     1       2.417   1.393   1.316  1.00  0.00    -0.387 OA
HETATM   14  H   UNL     1       1.931   2.196   1.013  1.00  0.00     0.210 HD
ENDBRANCH   6  13
ENDBRANCH   1   6
BRANCH   1  15
HETATM   15  C   UNL     1       1.512  -0.044   0.054  1.00  0.00     0.077 C 
BRANCH  15  16
HETATM   16  C   UNL     1       0.960  -0.864   1.476  1.00  0.00     0.039 C 
BRANCH  16  17
HETATM   17  C   UNL     1       1.858  -1.589   2.502  1.00  0.00     0.165 C 
BRANCH  17  18
HETATM   18  O   UNL     1       1.657  -3.010   2.434  1.00  0.00    -0.401 OA
HETATM   19  H   UNL     1       1.878  -3.333   1.550  1.00  0.00     0.209 HD
ENDBRANCH  17  18
ENDBRANCH  16  17
ENDBRANCH  15  16
BRANCH  15  20
HETATM   20  C   UNL     1       0.286   0.926  -0.182  1.00  0.00     0.167 C 
HETATM   21  O   UNL     1       0.371   2.141  -0.177  1.00  0.00    -0.292 OA
BRANCH  20  22
HETATM   22  C   UNL     1      -1.088   0.233  -0.286  1.00  0.00     0.043 A 
HETATM   23  C   UNL     1      -2.240   0.845   0.226  1.00  0.00     0.079 A 
HETATM   24  C   UNL     1      -3.446   0.139   0.328  1.00  0.00     0.037 A 
HETATM   25  C   UNL     1      -3.529  -1.191  -0.063  1.00  0.00     0.003 A 
HETATM   26  C   UNL     1      -2.411  -1.825  -0.594  1.00  0.00     0.001 A 
HETATM   27  C   UNL     1      -1.215  -1.106  -0.729  1.00  0.00     0.018 A 
BRANCH  23  28
HETATM   28  O   UNL     1      -2.255   2.131   0.695  1.00  0.00    -0.360 OA
HETATM   29  H   UNL     1      -1.389   2.545   0.480  1.00  0.00     0.217 HD
ENDBRANCH  23  28
ENDBRANCH  20  22
ENDBRANCH  15  20
ENDBRANCH   1  15
BRANCH   3  30
HETATM   30  N   UNL     1       5.686  -1.831   0.538  1.00  0.00    -0.273 N 
HETATM   31  N   UNL     1       6.687  -0.880   0.554  1.00  0.00    -0.185 NA
HETATM   32  C   UNL     1       7.832  -1.563   0.578  1.00  0.00     0.140 A 
HETATM   33  C   UNL     1       7.652  -2.947   0.627  1.00  0.00     0.040 A 
HETATM   34  C   UNL     1       6.295  -3.105   0.640  1.00  0.00     0.114 A 
ENDBRANCH   3  30
TORSDOF 13
