REMARK  4 active torsions:
REMARK  status: ('A' for Active; 'I' for Inactive)
REMARK    1  A    between atoms: N_1  and  C_2 
REMARK    2  A    between atoms: C_4  and  O_5 
REMARK    3  A    between atoms: C_7  and  O_8 
REMARK    4  A    between atoms: O_8  and  C_9 
ROOT
HETATM    1  C   UNL     1       1.067   0.830  -0.000  1.00  0.00     0.126 A 
HETATM    2  C   UNL     1       2.266   0.138  -0.000  1.00  0.00     0.086 A 
HETATM    3  C   UNL     1       2.229  -1.251  -0.000  1.00  0.00     0.073 A 
HETATM    4  C   UNL     1       1.020  -1.922   0.000  1.00  0.00     0.095 A 
HETATM    5  C   UNL     1      -0.120  -1.140   0.000  1.00  0.00     0.176 A 
HETATM    6  N   UNL     1      -0.121   0.207   0.000  1.00  0.00    -0.207 NA
ENDROOT
BRANCH   1   7
HETATM    7  N   UNL     1       1.022   2.199   0.000  1.00  0.00    -0.384 N 
HETATM    8  H   UNL     1       1.848   2.772  -0.000  1.00  0.00     0.157 HD
HETATM    9  H   UNL     1       0.103   2.617  -0.000  1.00  0.00     0.157 HD
ENDBRANCH   1   7
BRANCH   5  10
HETATM   10  O   UNL     1      -1.350  -1.835   0.000  1.00  0.00    -0.266 OA
BRANCH  10  11
HETATM   11  C   UNL     1      -2.499  -1.080   0.000  1.00  0.00     0.405 C 
HETATM   12  O   UNL     1      -3.619  -1.576   0.000  1.00  0.00    -0.276 OA
ENDBRANCH  10  11
ENDBRANCH   5  10
BRANCH   3  13
HETATM   13  O   UNL     1       3.419  -1.920   0.000  1.00  0.00    -0.360 OA
HETATM   14  H   UNL     1       3.250  -2.877  -0.000  1.00  0.00     0.217 HD
ENDBRANCH   3  13
TORSDOF 4
