REMARK  3 active torsions:
REMARK  status: ('A' for Active; 'I' for Inactive)
REMARK    1  A    between atoms: C_3  and  C_4 
REMARK       I    between atoms: C_4  and  N_6 
REMARK    2  A    between atoms: N_6  and  C_7 
REMARK    3  A    between atoms: C_7  and  S_9 
ROOT
HETATM    1  C   UNL     1       4.290   0.737   0.267  1.00  0.00     0.246 C 
HETATM    2  O   UNL     1       4.670   1.701   0.920  1.00  0.00    -0.268 OA
HETATM    3  N   UNL     1       3.043   0.546  -0.292  1.00  0.00    -0.309 N 
HETATM    4  H   UNL     1       2.921  -0.274  -0.864  1.00  0.00     0.170 HD
ENDROOT
BRANCH   3   5
HETATM    5  C   UNL     1       1.912   1.341  -0.231  1.00  0.00     0.141 C 
HETATM    6  S   UNL     1       1.729   2.830   0.495  1.00  0.00    -0.052 SA
BRANCH   5   7
HETATM    7  S   UNL     1       0.651   0.530  -1.156  1.00  0.00    -0.105 SA
HETATM    8  C   UNL     1      -0.735   0.583   0.004  1.00  0.00     0.098 C 
ENDBRANCH   5   7
ENDBRANCH   3   5
BRANCH   1   9
HETATM    9  C   UNL     1       5.281  -0.323  -0.075  1.00  0.00     0.070 C 
HETATM   10  C   UNL     1       5.100  -1.652  -0.111  1.00  0.00    -0.026 C 
HETATM   11  C   UNL     1       3.877  -2.436   0.239  1.00  0.00     0.036 C 
ENDBRANCH   1   9
TORSDOF 3
