REMARK  4 active torsions:
REMARK  status: ('A' for Active; 'I' for Inactive)
REMARK    1  A    between atoms: O_2  and  C_3 
REMARK       I    between atoms: C_3  and  N_5 
REMARK    2  A    between atoms: N_5  and  C_6 
REMARK    3  A    between atoms: C_6  and  O_8 
REMARK    4  A    between atoms: O_8  and  C_9 
ROOT
HETATM    1  C   UNL     1       1.086   1.116   0.432  1.00  0.00     0.224 C 
HETATM    2  S   UNL     1       0.173   1.959  -0.678  1.00  0.00    -0.032 SA
ENDROOT
BRANCH   1   3
HETATM    3  N   UNL     1       2.197   1.544   1.122  1.00  0.00    -0.273 N 
HETATM    4  C   UNL     1       2.678   2.832   1.156  1.00  0.00     0.366 C 
HETATM    5  O   UNL     1       2.669   3.507   2.174  1.00  0.00    -0.238 OA
HETATM    6  H   UNL     1       2.223   1.110   2.038  1.00  0.00     0.174 HD
BRANCH   4   7
HETATM    7  O   UNL     1       3.228   3.252  -0.007  1.00  0.00    -0.309 OA
HETATM    8  C   UNL     1       4.467   2.603  -0.301  1.00  0.00     0.215 C 
ENDBRANCH   4   7
ENDBRANCH   1   3
BRANCH   1   9
HETATM    9  O   UNL     1       0.840  -0.190   0.777  1.00  0.00    -0.279 OA
BRANCH   9  10
HETATM   10  C   UNL     1      -0.234  -0.965   0.286  1.00  0.00     0.146 C 
HETATM   11  C   UNL     1      -1.613  -0.744   0.795  1.00  0.00     0.186 C 
HETATM   12  C   UNL     1      -2.708  -1.475   0.065  1.00  0.00     0.112 C 
HETATM   13  O   UNL     1      -1.830   0.020   1.730  1.00  0.00    -0.290 OA
HETATM   14  C   UNL     1      -2.190  -2.867  -0.240  1.00  0.00     0.182 C 
HETATM   15  O   UNL     1      -1.001  -2.837  -1.042  1.00  0.00    -0.360 OA
HETATM   16  C   UNL     1      -0.047  -1.963  -0.587  1.00  0.00     0.175 C 
ENDBRANCH   9  10
ENDBRANCH   1   9
TORSDOF 4
