REMARK  4 active torsions:
REMARK  status: ('A' for Active; 'I' for Inactive)
REMARK    1  A    between atoms: O_2  and  C_3 
REMARK    2  A    between atoms: C_6  and  C_7 
REMARK    3  A    between atoms: C_9  and  C_10 
REMARK    4  A    between atoms: C_10  and  N_11 
ROOT
HETATM    1  C   UNL     1      -4.031  -0.934   0.639  1.00  0.00     0.180 A 
HETATM    2  N   UNL     1      -4.769  -2.023   0.672  1.00  0.00    -0.224 NA
HETATM    3  C   UNL     1      -6.032  -1.605   0.307  1.00  0.00     0.086 A 
HETATM    4  C   UNL     1      -6.010  -0.237   0.106  1.00  0.00     0.078 A 
HETATM    5  C   UNL     1      -6.976   0.785  -0.335  1.00  0.00     0.079 C 
HETATM    6  O   UNL     1      -4.731   0.202   0.339  1.00  0.00    -0.294 OA
ENDROOT
BRANCH   1   7
HETATM    7  C   UNL     1      -2.577  -0.853   0.663  1.00  0.00     0.017 A 
HETATM    8  C   UNL     1      -1.850  -2.050   0.661  1.00  0.00     0.018 A 
HETATM    9  C   UNL     1      -0.465  -2.044   0.515  1.00  0.00     0.037 A 
HETATM   10  C   UNL     1       0.232  -0.842   0.382  1.00  0.00     0.068 A 
HETATM   11  C   UNL     1      -0.476   0.359   0.430  1.00  0.00     0.037 A 
HETATM   12  C   UNL     1      -1.874   0.353   0.578  1.00  0.00     0.018 A 
BRANCH  10  13
HETATM   13  O   UNL     1       1.574  -1.012   0.230  1.00  0.00    -0.356 OA
HETATM   14  C   UNL     1       2.412   0.099  -0.042  1.00  0.00     0.210 C 
ENDBRANCH  10  13
ENDBRANCH   1   7
BRANCH   3  15
HETATM   15  C   UNL     1      -7.058  -2.652   0.077  1.00  0.00     0.208 C 
BRANCH  15  16
HETATM   16  N   UNL     1      -8.434  -2.257   0.299  1.00  0.00    -0.277 N 
HETATM   17  N   UNL     1      -8.804  -1.476   1.328  1.00  0.00     0.005 NA
HETATM   18  N   UNL     1     -10.129  -1.355   1.281  1.00  0.00    -0.164 NA
HETATM   19  C   UNL     1     -10.590  -2.119   0.246  1.00  0.00     0.065 A 
HETATM   20  C   UNL     1      -9.522  -2.714  -0.391  1.00  0.00     0.136 A 
HETATM   21  C   UNL     1     -12.032  -2.215  -0.048  1.00  0.00     0.073 C 
ENDBRANCH  15  16
ENDBRANCH   3  15
TORSDOF 4
