REMARK  4 active torsions:
REMARK  status: ('A' for Active; 'I' for Inactive)
REMARK    1  A    between atoms: C_2  and  C_3 
REMARK    2  A    between atoms: C_3  and  C_4 
REMARK    3  A    between atoms: C_3  and  N_16 
REMARK    4  A    between atoms: C_4  and  C_6 
ROOT
HETATM    1  C   UNL     1       3.968  -0.405  -0.287  1.00  0.00     0.047 C 
HETATM    2  C   UNL     1       4.694  -1.589  -0.431  1.00  0.00     0.020 C 
HETATM    3  C   UNL     1       4.390  -2.949  -0.949  1.00  0.00     0.069 C 
HETATM    4  N   UNL     1       5.996  -1.326  -0.065  1.00  0.00    -0.358 N 
HETATM    5  C   UNL     1       6.197   0.017   0.104  1.00  0.00     0.043 A 
HETATM    6  C   UNL     1       7.384   0.719   0.335  1.00  0.00     0.030 A 
HETATM    7  C   UNL     1       7.311   2.111   0.407  1.00  0.00     0.002 A 
HETATM    8  C   UNL     1       6.088   2.763   0.273  1.00  0.00     0.001 A 
HETATM    9  C   UNL     1       4.906   2.037   0.068  1.00  0.00     0.015 A 
HETATM   10  C   UNL     1       4.954   0.628  -0.031  1.00  0.00     0.006 A 
HETATM   11  H   UNL     1       6.742  -2.009  -0.058  1.00  0.00     0.166 HD
ENDROOT
BRANCH   1  12
HETATM   12  C   UNL     1       2.526  -0.128  -0.509  1.00  0.00     0.186 C 
HETATM   13  O   UNL     1       2.229   0.869  -1.172  1.00  0.00    -0.290 OA
BRANCH  12  14
HETATM   14  C   UNL     1       1.441  -0.904   0.271  1.00  0.00     0.180 C 
BRANCH  14  15
HETATM   15  C   UNL     1       1.484  -2.432   0.107  1.00  0.00     0.030 C 
HETATM   16  C   UNL     1       0.298  -3.223   0.652  1.00  0.00     0.007 C 
ENDBRANCH  14  15
BRANCH  14  17
HETATM   17  N   UNL     1       0.092  -0.413  -0.042  1.00  0.00    -0.271 N 
HETATM   18  N   UNL     1      -0.411  -0.551  -1.285  1.00  0.00     0.005 NA
HETATM   19  N   UNL     1      -1.733  -0.520  -1.193  1.00  0.00    -0.164 NA
HETATM   20  C   UNL     1      -2.072  -0.380   0.127  1.00  0.00     0.065 A 
HETATM   21  C   UNL     1      -0.922  -0.229   0.870  1.00  0.00     0.137 A 
HETATM   22  C   UNL     1      -3.472  -0.512   0.568  1.00  0.00     0.073 C 
ENDBRANCH  14  17
ENDBRANCH  12  14
ENDBRANCH   1  12
TORSDOF 4
