REMARK  7 active torsions:
REMARK  status: ('A' for Active; 'I' for Inactive)
REMARK    1  A    between atoms: S_2  and  C_3 
REMARK    2  A    between atoms: C_3  and  C_4 
REMARK    3  A    between atoms: C_4  and  O_5 
REMARK    4  A    between atoms: O_5  and  C_6 
REMARK    5  A    between atoms: C_6  and  C_7 
REMARK    6  A    between atoms: C_7  and  C_8 
REMARK    7  A    between atoms: C_8  and  O_9 
ROOT
HETATM    1  O   UNL     1       2.021  -0.103  -0.319  1.00  0.00    -0.390 OA
ENDROOT
BRANCH   1   2
HETATM    2  C   UNL     1       3.211  -0.884  -0.176  1.00  0.00     0.175 C 
BRANCH   2   3
HETATM    3  C   UNL     1       4.386   0.036  -0.494  1.00  0.00     0.065 C 
BRANCH   3   4
HETATM    4  S   UNL     1       6.062  -0.500   0.000  1.00  0.00    -0.292 SA
HETATM    5  C   UNL     1       6.062  -1.500   0.000  1.00  0.00     0.247 C 
ENDBRANCH   3   4
ENDBRANCH   2   3
ENDBRANCH   1   2
BRANCH   1   6
HETATM    6  C   UNL     1       0.828  -0.852  -0.112  1.00  0.00     0.169 C 
BRANCH   6   7
HETATM    7  C   UNL     1      -0.289   0.143   0.168  1.00  0.00     0.052 C 
BRANCH   7   8
HETATM    8  C   UNL     1      -1.632  -0.539   0.354  1.00  0.00     0.166 C 
BRANCH   8   9
HETATM    9  O   UNL     1      -2.614   0.414   0.742  1.00  0.00    -0.401 OA
HETATM   10  H   UNL     1      -2.605   1.135   0.089  1.00  0.00     0.209 HD
ENDBRANCH   8   9
ENDBRANCH   7   8
ENDBRANCH   6   7
ENDBRANCH   1   6
TORSDOF 7
