REMARK  8 active torsions:
REMARK  status: ('A' for Active; 'I' for Inactive)
REMARK    1  A    between atoms: S_2  and  C_3 
REMARK    2  A    between atoms: C_3  and  C_4 
REMARK    3  A    between atoms: C_3  and  C_6 
REMARK    4  A    between atoms: C_4  and  O_5 
REMARK    5  A    between atoms: C_6  and  O_7 
REMARK    6  A    between atoms: O_7  and  C_8 
REMARK    7  A    between atoms: C_8  and  C_9 
REMARK    8  A    between atoms: C_9  and  N_10 
ROOT
HETATM    1  O   UNL     1       2.782   0.327  -0.812  1.00  0.00    -0.388 OA
ENDROOT
BRANCH   1   2
HETATM    2  C   UNL     1       3.229  -0.503   0.269  1.00  0.00     0.182 C 
BRANCH   2   3
HETATM    3  C   UNL     1       4.533   0.042   0.880  1.00  0.00     0.063 C 
BRANCH   3   4
HETATM    4  S   UNL     1       6.062  -0.500   0.000  1.00  0.00    -0.287 SA
HETATM    5  C   UNL     1       6.062  -1.500   0.000  1.00  0.00     0.249 C 
ENDBRANCH   3   4
BRANCH   3   6
HETATM    6  C   UNL     1       4.563   1.585   0.913  1.00  0.00     0.178 C 
BRANCH   6   7
HETATM    7  O   UNL     1       3.321   2.126   1.361  1.00  0.00    -0.400 OA
HETATM    8  H   UNL     1       2.730   2.074   0.584  1.00  0.00     0.209 HD
ENDBRANCH   6   7
ENDBRANCH   3   6
ENDBRANCH   2   3
ENDBRANCH   1   2
BRANCH   1   9
HETATM    9  C   UNL     1       1.516  -0.092  -1.335  1.00  0.00     0.198 C 
BRANCH   9  10
HETATM   10  C   UNL     1       0.343   0.386  -0.452  1.00  0.00     0.298 C 
BRANCH  10  11
HETATM   11  N   UNL     1      -0.825  -0.507  -0.534  1.00  0.00     0.090 N 
HETATM   12  C   UNL     1      -2.039   0.174  -0.056  1.00  0.00     0.272 C 
HETATM   13  C   UNL     1      -3.267  -0.712  -0.264  1.00  0.00     0.030 C 
HETATM   14  C   UNL     1      -3.104  -2.069   0.412  1.00  0.00     0.003 C 
HETATM   15  C   UNL     1      -1.774  -2.710   0.033  1.00  0.00     0.030 C 
HETATM   16  C   UNL     1      -0.610  -1.741   0.242  1.00  0.00     0.272 C 
ENDBRANCH  10  11
ENDBRANCH   9  10
ENDBRANCH   1   9
TORSDOF 8
