REMARK  3 active torsions:
REMARK  status: ('A' for Active; 'I' for Inactive)
REMARK    1  A    between atoms: C_5  and  C_6 
REMARK    2  A    between atoms: C_6  and  O_8 
REMARK    3  A    between atoms: O_8  and  C_9 
ROOT
HETATM    1  C   UNL     1       0.809   1.588   0.000  1.00  0.00     0.102 C 
HETATM    2  C   UNL     1       0.809   0.588   0.000  1.00  0.00     0.165 A 
HETATM    3  N   UNL     1       1.736  -0.281  -0.388  1.00  0.00    -0.127 NA
HETATM    4  N   UNL     1       1.255  -1.566  -0.226  1.00  0.00    -0.124 NA
HETATM    5  C   UNL     1       0.029  -1.445   0.225  1.00  0.00     0.198 A 
HETATM    6  O   UNL     1      -0.338  -0.131   0.362  1.00  0.00    -0.275 OA
ENDROOT
BRANCH   5   7
HETATM    7  C   UNL     1      -0.938  -2.472   0.714  1.00  0.00     0.206 C 
HETATM    8  C   UNL     1      -2.265  -2.466  -0.035  1.00  0.00     0.049 C 
BRANCH   7   9
HETATM    9  O   UNL     1      -0.261  -3.750   0.828  1.00  0.00    -0.315 OA
BRANCH   9  10
HETATM   10  C   UNL     1      -0.325  -4.677  -0.151  1.00  0.00     0.398 C 
HETATM   11  O   UNL     1      -0.991  -4.646  -1.166  1.00  0.00    -0.276 OA
ENDBRANCH   9  10
ENDBRANCH   7   9
ENDBRANCH   5   7
TORSDOF 3
