REMARK  5 active torsions:
REMARK  status: ('A' for Active; 'I' for Inactive)
REMARK    1  A    between atoms: N_4  and  C_5 
REMARK    2  A    between atoms: C_5  and  C_6 
REMARK    3  A    between atoms: C_6  and  N_7 
REMARK       I    between atoms: N_7  and  C_8 
REMARK       I    between atoms: C_8  and  N_10 
REMARK    4  A    between atoms: N_10  and  C_11 
REMARK    5  A    between atoms: C_11  and  C_12 
ROOT
HETATM    1  N   UNL     1      -4.914   1.311   0.524  1.00  0.00    -0.342 N 
HETATM    2  C   UNL     1      -6.034   0.598   0.837  1.00  0.00     0.316 C 
HETATM    3  O   UNL     1      -6.716   0.926   1.800  1.00  0.00    -0.247 OA
HETATM    4  N   UNL     1      -6.321  -0.442  -0.001  1.00  0.00    -0.339 N 
HETATM    5  H   UNL     1      -4.702   2.006   1.234  1.00  0.00     0.164 HD
HETATM    6  H   UNL     1      -5.558  -0.849  -0.509  1.00  0.00     0.164 HD
ENDROOT
BRANCH   1   7
HETATM    7  C   UNL     1      -3.899   0.916  -0.430  1.00  0.00     0.145 C 
BRANCH   7   8
HETATM    8  C   UNL     1      -2.698   1.856  -0.536  1.00  0.00     0.165 C 
BRANCH   8   9
HETATM    9  N   UNL     1      -1.481   1.128  -0.229  1.00  0.00    -0.282 N 
HETATM   10  C   UNL     1      -1.055  -0.028  -0.822  1.00  0.00     0.136 C 
HETATM   11  C   UNL     1      -0.236  -0.593   0.131  1.00  0.00     0.065 C 
HETATM   12  C   UNL     1       0.337  -1.949   0.194  1.00  0.00     0.073 C 
HETATM   13  N   UNL     1      -0.073   0.293   1.162  1.00  0.00    -0.164 NA
HETATM   14  N   UNL     1      -0.834   1.352   0.924  1.00  0.00     0.004 NA
ENDBRANCH   8   9
ENDBRANCH   7   8
ENDBRANCH   1   7
BRANCH   4  15
HETATM   15  C   UNL     1      -7.438  -1.324   0.247  1.00  0.00     0.162 C 
BRANCH  15  16
HETATM   16  C   UNL     1      -8.793  -0.754  -0.094  1.00  0.00    -0.040 A 
HETATM   17  C   UNL     1      -8.958   0.435  -0.824  1.00  0.00     0.009 A 
HETATM   18  C   UNL     1     -10.236   0.935  -1.086  1.00  0.00     0.001 A 
HETATM   19  C   UNL     1     -11.360   0.246  -0.645  1.00  0.00     0.000 A 
HETATM   20  C   UNL     1     -11.214  -0.951   0.054  1.00  0.00     0.001 A 
HETATM   21  C   UNL     1      -9.937  -1.449   0.323  1.00  0.00     0.009 A 
ENDBRANCH  15  16
ENDBRANCH   4  15
TORSDOF 5
