REMARK  2 active torsions:
REMARK  status: ('A' for Active; 'I' for Inactive)
REMARK    1  A    between atoms: S_2  and  C_3 
REMARK       I    between atoms: C_3  and  N_5 
REMARK       I    between atoms: N_5  and  C_6 
REMARK    2  A    between atoms: C_6  and  C_8 
ROOT
HETATM    1  C   UNL     1       2.873   0.262  -0.567  1.00  0.00     0.255 C 
HETATM    2  O   UNL     1       2.938   1.228  -1.307  1.00  0.00    -0.263 OA
HETATM    3  N   UNL     1       1.737  -0.329  -0.083  1.00  0.00    -0.283 N 
HETATM    4  C   UNL     1       0.436   0.103  -0.335  1.00  0.00     0.332 C 
HETATM    5  O   UNL     1       0.145   1.150  -0.910  1.00  0.00    -0.263 OA
HETATM    6  H   UNL     1       1.852  -1.148   0.500  1.00  0.00     0.172 HD
ENDROOT
BRANCH   1   7
HETATM    7  S   UNL     1       4.330  -0.500   0.000  1.00  0.00    -0.213 SA
HETATM    8  C   UNL     1       4.330  -1.500   0.000  1.00  0.00     0.276 C 
ENDBRANCH   1   7
BRANCH   4   9
HETATM    9  C   UNL     1      -0.618  -0.878   0.195  1.00  0.00     0.472 C 
HETATM   10  F   UNL     1      -1.326  -1.474  -0.799  1.00  0.00    -0.162 F 
HETATM   11  F   UNL     1      -0.030  -1.892   0.900  1.00  0.00    -0.162 F 
HETATM   12  F   UNL     1      -1.512  -0.299   1.037  1.00  0.00    -0.162 F 
ENDBRANCH   4   9
TORSDOF 2
