REMARK  3 active torsions:
REMARK  status: ('A' for Active; 'I' for Inactive)
REMARK    1  A    between atoms: C_2  and  C_3 
REMARK    2  A    between atoms: C_8  and  O_10 
REMARK    3  A    between atoms: O_10  and  C_11 
ROOT
HETATM    1  C   UNL     1       3.464  -2.000   0.000  1.00  0.00     0.006 A 
HETATM    2  C   UNL     1       4.285  -3.184  -0.746  1.00  0.00     0.018 C 
HETATM    3  C   UNL     1       2.598  -2.500   0.000  1.00  0.00     0.148 A 
HETATM    4  C   UNL     1       2.598  -1.500   0.000  1.00  0.00     0.225 A 
HETATM    5  N   UNL     1       2.598  -0.500   0.000  1.00  0.00    -0.002 N 
HETATM    6  C   UNL     1       1.732  -1.000   0.000  1.00  0.00     0.332 A 
HETATM    7  O   UNL     1       0.902  -0.957  -1.015  1.00  0.00    -0.169 OA
HETATM    8  H   UNL     1       3.015   0.103  -0.771  1.00  0.00     0.284 HD
HETATM    9  H   UNL     1       2.729   0.218   0.807  1.00  0.00     0.284 HD
ENDROOT
BRANCH   6  10
HETATM   10  O   UNL     1       1.001  -0.883   1.367  1.00  0.00    -0.286 OA
BRANCH  10  11
HETATM   11  C   UNL     1      -0.324  -0.469   1.207  1.00  0.00     0.145 C 
HETATM   12  C   UNL     1      -0.629   0.991   1.207  1.00  0.00     0.205 C 
HETATM   13  C   UNL     1      -1.857   1.294   0.801  1.00  0.00     0.057 C 
HETATM   14  O   UNL     1       0.333   1.722   1.575  1.00  0.00    -0.286 OA
HETATM   15  C   UNL     1      -2.889   0.275   0.401  1.00  0.00     0.206 C 
HETATM   16  O   UNL     1      -2.622  -1.088   0.778  1.00  0.00    -0.356 OA
HETATM   17  C   UNL     1      -1.309  -1.360   1.036  1.00  0.00     0.176 C 
ENDBRANCH  10  11
ENDBRANCH   6  10
BRANCH   1  18
HETATM   18  C   UNL     1       4.561  -1.530   1.123  1.00  0.00     0.007 C 
HETATM   19  C   UNL     1       5.898  -1.152   0.424  1.00  0.00     0.006 C 
ENDBRANCH   1  18
TORSDOF 3
