REMARK  4 active torsions:
REMARK  status: ('A' for Active; 'I' for Inactive)
REMARK    1  A    between atoms: C_2  and  C_3 
REMARK    2  A    between atoms: C_6  and  S_7 
REMARK    3  A    between atoms: S_7  and  C_8 
REMARK    4  A    between atoms: C_10  and  O_11 
ROOT
HETATM    1  C   UNL     1       1.404   1.338   0.050  1.00  0.00    -0.056 A 
HETATM    2  C   UNL     1       2.642   0.753   0.316  1.00  0.00     0.009 A 
HETATM    3  C   UNL     1       2.743  -0.623   0.545  1.00  0.00     0.022 A 
HETATM    4  C   UNL     1       1.614  -1.458   0.494  1.00  0.00     0.041 A 
HETATM    5  C   UNL     1       0.360  -0.882   0.171  1.00  0.00     0.085 A 
HETATM    6  C   UNL     1       0.277   0.506  -0.025  1.00  0.00     0.045 A 
ENDROOT
BRANCH   4   7
HETATM    7  S   UNL     1       1.873  -3.164   0.998  1.00  0.00    -0.059 SA
BRANCH   7   8
HETATM    8  C   UNL     1       2.778  -3.807  -0.362  1.00  0.00     0.309 C 
HETATM    9  O   UNL     1       2.642  -4.964  -0.734  1.00  0.00    -0.295 OA
ENDBRANCH   7   8
ENDBRANCH   4   7
BRANCH   5  10
HETATM   10  O   UNL     1      -0.866  -1.500   0.000  1.00  0.00    -0.355 OA
HETATM   11  C   UNL     1      -0.866  -2.500   0.000  1.00  0.00     0.210 C 
ENDBRANCH   5  10
BRANCH   1  12
HETATM   12  C   UNL     1       1.194   2.827  -0.107  1.00  0.00     0.034 C 
HETATM   13  C   UNL     1       2.443   3.683  -0.262  1.00  0.00     0.010 C 
ENDBRANCH   1  12
TORSDOF 4
