REMARK  5 active torsions:
REMARK  status: ('A' for Active; 'I' for Inactive)
REMARK       I    between atoms: N_4  and  C_5 
REMARK    1  A    between atoms: C_5  and  C_7 
REMARK    2  A    between atoms: C_7  and  C_8 
REMARK    3  A    between atoms: C_8  and  S_9 
REMARK    4  A    between atoms: S_9  and  C_10 
REMARK    5  A    between atoms: C_13  and  O_14 
ROOT
HETATM    1  C   UNL     1      -1.603   1.173  -0.460  1.00  0.00     0.014 C 
HETATM    2  C   UNL     1      -0.244   0.759   0.086  1.00  0.00     0.030 C 
HETATM    3  C   UNL     1       0.872   1.732  -0.279  1.00  0.00     0.132 C 
HETATM    4  N   UNL     1       2.101   0.967  -0.133  1.00  0.00    -0.349 N 
HETATM    5  C   UNL     1       3.412   1.362  -0.013  1.00  0.00     0.220 C 
HETATM    6  O   UNL     1       4.292   0.511   0.170  1.00  0.00    -0.273 OA
HETATM    7  C   UNL     1       1.789  -0.463  -0.109  1.00  0.00     0.157 C 
HETATM    8  C   UNL     1       0.297  -0.565  -0.447  1.00  0.00     0.141 C 
ENDROOT
BRANCH   5   9
HETATM    9  C   UNL     1       3.871   2.808  -0.199  1.00  0.00     0.113 C 
BRANCH   9  10
HETATM   10  C   UNL     1       2.882   3.914   0.082  1.00  0.00     0.091 C 
BRANCH  10  11
HETATM   11  S   UNL     1       3.620   5.571   0.058  1.00  0.00    -0.101 SA
BRANCH  11  12
HETATM   12  C   UNL     1       2.131   6.486   0.265  1.00  0.00     0.304 C 
HETATM   13  O   UNL     1       2.123   7.711   0.292  1.00  0.00    -0.295 OA
ENDBRANCH  11  12
ENDBRANCH  10  11
ENDBRANCH   9  10
ENDBRANCH   5   9
BRANCH   8  14
HETATM   14  O   UNL     1      -0.311  -1.665   0.210  1.00  0.00    -0.394 OA
HETATM   15  H   UNL     1      -1.264  -1.643   0.020  1.00  0.00     0.210 HD
ENDBRANCH   8  14
TORSDOF 5
