REMARK  2 active torsions:
REMARK  status: ('A' for Active; 'I' for Inactive)
REMARK    1  A    between atoms: C_5  and  N_6 
REMARK    2  A    between atoms: N_7  and  C_8 
ROOT
HETATM    1  C   UNL     1       0.337  -1.804  -0.411  1.00  0.00     0.159 C 
HETATM    2  N   UNL     1      -0.383  -0.966   0.547  1.00  0.00    -0.141 NA
HETATM    3  N   UNL     1      -1.808  -0.963   0.304  1.00  0.00    -0.152 NA
HETATM    4  N   UNL     1      -2.199   0.378   0.295  1.00  0.00    -0.301 N 
HETATM    5  C   UNL     1      -1.110   1.294   0.541  1.00  0.00     0.315 C 
HETATM    6  N   UNL     1       0.012   0.380   0.559  1.00  0.00    -0.231 N 
HETATM    7  H   UNL     1      -2.117  -1.434  -0.553  1.00  0.00     0.168 HD
HETATM    8  H   UNL     1      -3.117   0.576  -0.092  1.00  0.00     0.179 HD
ENDROOT
BRANCH   5   9
HETATM    9  N   UNL     1      -1.041   2.263  -0.504  1.00  0.00    -0.393 N 
HETATM   10  H   UNL     1      -0.135   2.640  -0.772  1.00  0.00     0.153 HD
HETATM   11  H   UNL     1      -1.836   2.832  -0.775  1.00  0.00     0.153 HD
ENDBRANCH   5   9
BRANCH   6  12
HETATM   12  C   UNL     1       1.341   0.866   0.665  1.00  0.00     0.371 C 
HETATM   13  O   UNL     1       1.593   2.059   0.570  1.00  0.00    -0.282 OA
ENDBRANCH   6  12
TORSDOF 2
