REMARK  6 active torsions:
REMARK  status: ('A' for Active; 'I' for Inactive)
REMARK    1  A    between atoms: C_7  and  O_8 
REMARK    2  A    between atoms: O_8  and  C_9 
REMARK    3  A    between atoms: C_9  and  N_11 
REMARK    4  A    between atoms: N_11  and  C_12 
REMARK    5  A    between atoms: C_12  and  C_13 
REMARK    6  A    between atoms: C_17  and  C_18 
ROOT
HETATM    1  N   UNL     1       0.161   2.151  -0.383  1.00  0.00    -0.357 N 
HETATM    2  H   UNL     1      -0.142   1.841  -1.298  1.00  0.00     0.162 HD
ENDROOT
BRANCH   1   3
HETATM    3  C   UNL     1      -0.925   2.461   0.402  1.00  0.00     0.215 C 
HETATM    4  S   UNL     1      -0.918   2.946   1.999  1.00  0.00    -0.033 SA
BRANCH   3   5
HETATM    5  O   UNL     1      -2.032   2.546  -0.394  1.00  0.00    -0.281 OA
BRANCH   5   6
HETATM    6  C   UNL     1      -3.343   2.137  -0.005  1.00  0.00     0.128 C 
HETATM    7  C   UNL     1      -3.655   0.715   0.184  1.00  0.00     0.227 C 
HETATM    8  O   UNL     1      -2.658  -0.026   0.351  1.00  0.00    -0.283 OA
HETATM    9  C   UNL     1      -4.959   0.373   0.124  1.00  0.00     0.192 C 
HETATM   10  O   UNL     1      -6.028   1.209  -0.042  1.00  0.00    -0.355 OA
HETATM   11  C   UNL     1      -5.759   2.606   0.122  1.00  0.00     0.205 C 
HETATM   12  C   UNL     1      -4.339   3.029  -0.053  1.00  0.00     0.041 C 
ENDBRANCH   5   6
ENDBRANCH   3   5
ENDBRANCH   1   3
BRANCH   1  13
HETATM   13  C   UNL     1       1.460   1.687   0.060  1.00  0.00     0.161 C 
BRANCH  13  14
HETATM   14  C   UNL     1       1.642   0.183  -0.004  1.00  0.00    -0.040 A 
HETATM   15  C   UNL     1       0.581  -0.697  -0.265  1.00  0.00     0.025 A 
HETATM   16  C   UNL     1       0.742  -2.089  -0.250  1.00  0.00     0.048 A 
HETATM   17  C   UNL     1       2.013  -2.609   0.018  1.00  0.00     0.016 A 
HETATM   18  C   UNL     1       3.092  -1.754   0.254  1.00  0.00     0.001 A 
HETATM   19  C   UNL     1       2.906  -0.369   0.246  1.00  0.00     0.009 A 
BRANCH  16  20
HETATM   20  C   UNL     1      -0.445  -3.001  -0.471  1.00  0.00     0.417 C 
HETATM   21  F   UNL     1      -1.163  -3.246   0.657  1.00  0.00    -0.166 F 
HETATM   22  F   UNL     1      -0.043  -4.243  -0.899  1.00  0.00    -0.166 F 
HETATM   23  F   UNL     1      -1.308  -2.577  -1.431  1.00  0.00    -0.166 F 
ENDBRANCH  16  20
ENDBRANCH  13  14
ENDBRANCH   1  13
TORSDOF 6
