REMARK  3 active torsions:
REMARK  status: ('A' for Active; 'I' for Inactive)
REMARK    1  A    between atoms: S_2  and  C_3 
REMARK    2  A    between atoms: C_3  and  C_5 
REMARK    3  A    between atoms: C_5  and  S_7 
ROOT
HETATM    1  C   UNL     1       2.011  -0.900   1.244  1.00  0.00     0.199 C 
HETATM    2  O   UNL     1       1.474  -0.768   2.337  1.00  0.00    -0.284 OA
ENDROOT
BRANCH   1   3
HETATM    3  S   UNL     1       3.163  -2.220   0.979  1.00  0.00    -0.096 SA
HETATM    4  C   UNL     1       1.957  -3.546   0.746  1.00  0.00     0.098 C 
ENDBRANCH   1   3
BRANCH   1   5
HETATM    5  C   UNL     1       1.732   0.000   0.000  1.00  0.00     0.123 C 
HETATM    6  C   UNL     1       1.732   1.000   0.000  1.00  0.00     0.030 C 
BRANCH   5   7
HETATM    7  S   UNL     1       0.044  -0.604  -0.676  1.00  0.00    -0.161 SA
HETATM    8  C   UNL     1      -1.111   0.338   0.367  1.00  0.00     0.090 C 
ENDBRANCH   5   7
ENDBRANCH   1   5
TORSDOF 3
