REMARK  2 active torsions:
REMARK  status: ('A' for Active; 'I' for Inactive)
REMARK    1  A    between atoms: N_4  and  C_5 
REMARK    2  A    between atoms: C_5  and  C_6 
REMARK       I    between atoms: C_6  and  N_8 
ROOT
HETATM    1  C   UNL     1       1.834  -4.297   0.022  1.00  0.00     0.239 C 
HETATM    2  O   UNL     1       1.690  -5.529  -0.006  1.00  0.00    -0.271 OA
HETATM    3  N   UNL     1       3.118  -3.764  -0.100  1.00  0.00    -0.347 N 
HETATM    4  C   UNL     1       3.470  -2.348   0.028  1.00  0.00     0.152 C 
HETATM    5  C   UNL     1       4.902  -1.988  -0.373  1.00  0.00     0.187 C 
HETATM    6  O   UNL     1       5.849  -2.885   0.207  1.00  0.00    -0.388 OA
HETATM    7  C   UNL     1       5.596  -4.204  -0.286  1.00  0.00     0.187 C 
HETATM    8  C   UNL     1       4.222  -4.702   0.164  1.00  0.00     0.152 C 
ENDROOT
BRANCH   1   9
HETATM    9  C   UNL     1       0.582  -3.492   0.359  1.00  0.00     0.248 C 
BRANCH   9  10
HETATM   10  N   UNL     1       0.506  -2.114  -0.059  1.00  0.00    -0.274 N 
HETATM   11  C   UNL     1       0.719  -0.998   0.702  1.00  0.00     0.136 C 
HETATM   12  C   UNL     1       0.803   0.010  -0.239  1.00  0.00     0.065 C 
HETATM   13  C   UNL     1       1.298   1.392  -0.094  1.00  0.00     0.073 C 
HETATM   14  N   UNL     1       0.454  -0.489  -1.464  1.00  0.00    -0.164 NA
HETATM   15  N   UNL     1       0.239  -1.793  -1.334  1.00  0.00     0.005 NA
ENDBRANCH   9  10
ENDBRANCH   1   9
TORSDOF 2
