REMARK  5 active torsions:
REMARK  status: ('A' for Active; 'I' for Inactive)
REMARK    1  A    between atoms: N_1  and  C_2 
REMARK    2  A    between atoms: C_2  and  S_12 
REMARK    3  A    between atoms: N_3  and  N_4 
REMARK    4  A    between atoms: C_5  and  C_6 
REMARK    5  A    between atoms: S_12  and  C_13 
ROOT
HETATM    1  C   UNL     1      -0.711  -4.533  -0.200  1.00  0.00     0.167 C 
HETATM    2  N   UNL     1       0.025  -3.654   0.415  1.00  0.00    -0.131 NA
ENDROOT
BRANCH   2   3
HETATM    3  N   UNL     1       0.027  -2.357  -0.095  1.00  0.00    -0.160 NA
HETATM    4  C   UNL     1      -0.707  -1.535   0.584  1.00  0.00     0.152 C 
BRANCH   4   5
HETATM    5  C   UNL     1      -0.738  -0.098   0.265  1.00  0.00    -0.017 A 
HETATM    6  C   UNL     1       0.421   0.546  -0.180  1.00  0.00     0.013 A 
HETATM    7  C   UNL     1       0.398   1.920  -0.424  1.00  0.00     0.001 A 
HETATM    8  C   UNL     1      -0.784   2.639  -0.243  1.00  0.00     0.000 A 
HETATM    9  C   UNL     1      -1.943   1.989   0.186  1.00  0.00     0.001 A 
HETATM   10  C   UNL     1      -1.921   0.619   0.453  1.00  0.00     0.013 A 
ENDBRANCH   4   5
ENDBRANCH   2   3
BRANCH   1  11
HETATM   11  N   UNL     1      -0.624  -5.854   0.126  1.00  0.00    -0.280 NA
HETATM   12  H   UNL     1      -0.761  -6.471  -0.665  1.00  0.00     0.126 HD
HETATM   13  H   UNL     1       0.243  -6.047   0.617  1.00  0.00     0.126 HD
ENDBRANCH   1  11
BRANCH   1  14
HETATM   14  S   UNL     1      -1.874  -4.186  -1.457  1.00  0.00    -0.028 SA
BRANCH  14  15
HETATM   15  C   UNL     1      -3.244  -4.156  -0.358  1.00  0.00     0.311 C 
HETATM   16  O   UNL     1      -4.312  -3.640  -0.668  1.00  0.00    -0.295 OA
ENDBRANCH  14  15
ENDBRANCH   1  14
TORSDOF 5
