REMARK  4 active torsions:
REMARK  status: ('A' for Active; 'I' for Inactive)
REMARK    1  A    between atoms: C_7  and  N_8 
REMARK    2  A    between atoms: N_8  and  C_9 
REMARK    3  A    between atoms: C_9  and  C_10 
REMARK    4  A    between atoms: C_12  and  C_13 
ROOT
HETATM    1  N   UNL     1      -0.081   3.781  -0.866  1.00  0.00     0.096 N 
HETATM    2  H   UNL     1       0.225   3.311  -1.728  1.00  0.00     0.316 HD
ENDROOT
BRANCH   1   3
HETATM    3  C   UNL     1      -1.448   3.208  -0.750  1.00  0.00     0.297 C 
HETATM    4  C   UNL     1      -1.516   1.683  -0.952  1.00  0.00     0.204 C 
HETATM    5  O   UNL     1      -0.903   1.285  -1.987  1.00  0.00    -0.289 OA
HETATM    6  C   UNL     1      -2.214   0.968  -0.046  1.00  0.00     0.186 C 
HETATM    7  O   UNL     1      -2.999   1.458   0.968  1.00  0.00    -0.359 OA
HETATM    8  C   UNL     1      -3.400   2.809   0.725  1.00  0.00     0.177 C 
HETATM    9  C   UNL     1      -2.200   3.705   0.493  1.00  0.00     0.070 C 
ENDBRANCH   1   3
BRANCH   1  10
HETATM   10  C   UNL     1       0.856   3.378   0.189  1.00  0.00     0.275 C 
BRANCH  10  11
HETATM   11  C   UNL     1       1.780   2.264  -0.220  1.00  0.00     0.018 A 
HETATM   12  C   UNL     1       3.013   1.932   0.628  1.00  0.00     0.012 A 
HETATM   13  C   UNL     1       1.793   0.998   0.531  1.00  0.00    -0.004 A 
BRANCH  13  14
HETATM   14  C   UNL     1       1.806  -0.345  -0.203  1.00  0.00    -0.010 A 
HETATM   15  C   UNL     1       1.042  -1.536   0.332  1.00  0.00     0.005 A 
HETATM   16  C   UNL     1       2.540  -1.564   0.298  1.00  0.00     0.005 A 
ENDBRANCH  13  14
ENDBRANCH  10  11
ENDBRANCH   1  10
TORSDOF 4
