REMARK  3 active torsions:
REMARK  status: ('A' for Active; 'I' for Inactive)
REMARK    1  A    between atoms: S_2  and  C_3 
REMARK    2  A    between atoms: C_3  and  N_5 
REMARK    3  A    between atoms: N_5  and  C_6 
ROOT
HETATM    1  C   UNL     1      -0.302   0.220  -0.020  1.00  0.00     0.047 A 
HETATM    2  C   UNL     1      -1.353   1.148   0.006  1.00  0.00     0.030 A 
HETATM    3  C   UNL     1      -1.128   2.530   0.004  1.00  0.00     0.005 A 
HETATM    4  C   UNL     1       0.160   3.058  -0.009  1.00  0.00     0.032 A 
HETATM    5  C   UNL     1       1.209   2.141  -0.010  1.00  0.00     0.064 A 
HETATM    6  N   UNL     1       2.567   2.325  -0.013  1.00  0.00    -0.278 N 
HETATM    7  N   UNL     1       3.276   1.187  -0.015  1.00  0.00    -0.186 NA
HETATM    8  C   UNL     1       2.335   0.239  -0.020  1.00  0.00     0.154 A 
HETATM    9  C   UNL     1       1.014   0.758  -0.014  1.00  0.00     0.038 A 
HETATM   10  H   UNL     1       3.066   3.206  -0.013  1.00  0.00     0.189 HD
ENDROOT
BRANCH   1  11
HETATM   11  N   UNL     1      -0.436  -1.189  -0.038  1.00  0.00    -0.341 N 
HETATM   12  H   UNL     1       0.445  -1.685   0.026  1.00  0.00     0.167 HD
BRANCH  11  13
HETATM   13  C   UNL     1      -1.468  -2.093  -0.176  1.00  0.00     0.138 C 
HETATM   14  S   UNL     1      -1.007  -3.711  -0.152  1.00  0.00    -0.053 SA
BRANCH  13  15
HETATM   15  S   UNL     1      -3.091  -1.531  -0.475  1.00  0.00    -0.105 SA
HETATM   16  C   UNL     1      -4.181  -2.854   0.078  1.00  0.00     0.098 C 
ENDBRANCH  13  15
ENDBRANCH  11  13
ENDBRANCH   1  11
TORSDOF 3
