REMARK  4 active torsions:
REMARK  status: ('A' for Active; 'I' for Inactive)
REMARK    1  A    between atoms: S_2  and  C_3 
REMARK    2  A    between atoms: C_3  and  C_5 
REMARK    3  A    between atoms: C_5  and  C_7 
REMARK    4  A    between atoms: C_7  and  N_8 
ROOT
HETATM    1  N   UNL     1       0.386  -0.821  -1.069  1.00  0.00    -0.084 NA
HETATM    2  N   UNL     1      -0.545  -1.521  -0.649  1.00  0.00    -0.163 NA
HETATM    3  N   UNL     1      -1.411  -2.153  -0.264  1.00  0.00     0.068 N 
ENDROOT
BRANCH   1   4
HETATM    4  C   UNL     1       1.338  -0.588  -0.123  1.00  0.00     0.167 C 
BRANCH   4   5
HETATM    5  C   UNL     1       1.634   0.645   0.313  1.00  0.00     0.012 C 
HETATM    6  C   UNL     1       0.810   1.865   0.056  1.00  0.00     0.054 C 
BRANCH   5   7
HETATM    7  C   UNL     1       2.933   0.918   0.982  1.00  0.00     0.185 C 
HETATM    8  O   UNL     1       3.029   1.448   2.079  1.00  0.00    -0.283 OA
BRANCH   7   9
HETATM    9  S   UNL     1       4.330   0.500   0.000  1.00  0.00    -0.228 SA
HETATM   10  C   UNL     1       4.330  -0.500   0.000  1.00  0.00     0.271 C 
ENDBRANCH   7   9
ENDBRANCH   5   7
ENDBRANCH   4   5
ENDBRANCH   1   4
TORSDOF 4
