REMARK  5 active torsions:
REMARK  status: ('A' for Active; 'I' for Inactive)
REMARK    1  A    between atoms: C_2  and  C_3 
REMARK    2  A    between atoms: C_2  and  C_12 
REMARK    3  A    between atoms: C_3  and  O_4 
REMARK    4  A    between atoms: O_4  and  C_5 
REMARK    5  A    between atoms: C_12  and  C_13 
ROOT
HETATM    1  O   UNL     1       1.278   0.647   0.452  1.00  0.00    -0.345 OA
ENDROOT
BRANCH   1   2
HETATM    2  C   UNL     1       2.457  -0.021   0.001  1.00  0.00     0.180 C 
BRANCH   2   3
HETATM    3  C   UNL     1       2.342  -1.559   0.011  1.00  0.00     0.014 C 
HETATM    4  C   UNL     1       3.706  -2.189  -0.282  1.00  0.00     0.012 C 
BRANCH   3   5
HETATM    5  C   UNL     1       1.751  -2.101   1.325  1.00  0.00     0.102 C 
BRANCH   5   6
HETATM    6  C   UNL     1       0.925  -3.347   1.063  1.00  0.00     0.219 C 
HETATM    7  O   UNL     1      -0.147  -3.284   0.467  1.00  0.00    -0.280 OA
HETATM    8 CL   UNL     1       1.682  -4.798   1.645  1.00  0.00    -0.044 Cl
ENDBRANCH   5   6
ENDBRANCH   3   5
ENDBRANCH   2   3
ENDBRANCH   1   2
BRANCH   1   9
HETATM    9  C   UNL     1       0.099   0.466  -0.232  1.00  0.00     0.136 C 
HETATM   10  C   UNL     1      -1.169   0.735   0.522  1.00  0.00     0.186 C 
HETATM   11  C   UNL     1      -2.464   0.566  -0.224  1.00  0.00     0.112 C 
HETATM   12  O   UNL     1      -1.146   1.133   1.686  1.00  0.00    -0.290 OA
HETATM   13  C   UNL     1      -2.273  -0.547  -1.229  1.00  0.00     0.182 C 
HETATM   14  O   UNL     1      -1.219  -0.232  -2.147  1.00  0.00    -0.360 OA
HETATM   15  C   UNL     1      -0.042   0.075  -1.509  1.00  0.00     0.175 C 
ENDBRANCH   1   9
TORSDOF 5
