REMARK  2 active torsions:
REMARK  status: ('A' for Active; 'I' for Inactive)
REMARK    1  A    between atoms: C_7  and  O_8 
REMARK    2  A    between atoms: O_8  and  C_9 
ROOT
HETATM    1  C   UNL     1      -0.210  -1.154   0.319  1.00  0.00     0.078 A 
HETATM    2  C   UNL     1      -1.376  -1.902   0.539  1.00  0.00     0.038 A 
HETATM    3  C   UNL     1      -2.653  -1.359   0.328  1.00  0.00     0.018 A 
HETATM    4  C   UNL     1      -2.746  -0.021  -0.087  1.00  0.00     0.011 A 
HETATM    5  C   UNL     1      -3.784   0.904  -0.339  1.00  0.00     0.152 A 
HETATM    6  N   UNL     1      -3.333   2.109  -0.705  1.00  0.00    -0.186 NA
HETATM    7  N   UNL     1      -1.991   1.958  -0.654  1.00  0.00    -0.278 N 
HETATM    8  C   UNL     1      -1.581   0.694  -0.325  1.00  0.00     0.064 A 
HETATM    9  C   UNL     1      -0.298   0.151  -0.171  1.00  0.00     0.069 A 
HETATM   10  H   UNL     1      -1.399   2.760  -0.834  1.00  0.00     0.189 HD
ENDROOT
BRANCH   1  11
HETATM   11  O   UNL     1       0.954  -1.808   0.671  1.00  0.00    -0.307 OA
BRANCH  11  12
HETATM   12  C   UNL     1       2.223  -1.302   0.385  1.00  0.00     0.126 C 
HETATM   13  C   UNL     1       2.768  -0.075   1.013  1.00  0.00     0.227 C 
HETATM   14  O   UNL     1       2.082   0.392   1.962  1.00  0.00    -0.283 OA
HETATM   15  C   UNL     1       3.917   0.393   0.487  1.00  0.00     0.192 C 
HETATM   16  O   UNL     1       4.686  -0.214  -0.476  1.00  0.00    -0.355 OA
HETATM   17  C   UNL     1       4.466  -1.627  -0.573  1.00  0.00     0.205 C 
HETATM   18  C   UNL     1       3.058  -2.057  -0.345  1.00  0.00     0.041 C 
ENDBRANCH  11  12
ENDBRANCH   1  11
TORSDOF 2
