REMARK  1 active torsions:
REMARK  status: ('A' for Active; 'I' for Inactive)
REMARK       I    between atoms: N_4  and  C_5 
REMARK    1  A    between atoms: C_5  and  C_7 
ROOT
HETATM    1  C   UNL     1      -1.813  -2.327  -0.134  1.00  0.00     0.041 A 
HETATM    2  C   UNL     1      -1.665  -3.670   0.259  1.00  0.00     0.018 A 
HETATM    3  C   UNL     1      -0.402  -4.205   0.561  1.00  0.00     0.002 A 
HETATM    4  C   UNL     1       0.746  -3.417   0.467  1.00  0.00     0.013 A 
HETATM    5  C   UNL     1       0.613  -2.097   0.068  1.00  0.00    -0.018 A 
HETATM    6  C   UNL     1      -0.660  -1.546  -0.233  1.00  0.00    -0.027 A 
HETATM    7  C   UNL     1      -0.475  -0.113  -0.714  1.00  0.00     0.080 A 
HETATM    8  C   UNL     1       1.017   0.086  -0.609  1.00  0.00    -0.043 A 
HETATM    9  C   UNL     1       1.738   1.242  -0.863  1.00  0.00     0.008 A 
HETATM   10  C   UNL     1       3.118   1.205  -0.668  1.00  0.00     0.001 A 
HETATM   11  C   UNL     1       3.748   0.027  -0.233  1.00  0.00     0.001 A 
HETATM   12  C   UNL     1       3.007  -1.131   0.029  1.00  0.00     0.013 A 
HETATM   13  C   UNL     1       1.635  -1.091  -0.151  1.00  0.00    -0.019 A 
ENDROOT
BRANCH   1  14
HETATM   14  C   UNL     1      -3.165  -1.883  -0.564  1.00  0.00     0.275 C 
HETATM   15  N   UNL     1      -3.698  -0.603  -0.338  1.00  0.00    -0.211 N 
HETATM   16  C   UNL     1      -3.328   0.367   0.568  1.00  0.00     0.145 C 
HETATM   17  N   UNL     1      -4.671  -0.108  -1.142  1.00  0.00     0.012 NA
HETATM   18  C   UNL     1      -3.902   1.521   0.084  1.00  0.00     0.066 C 
HETATM   19  C   UNL     1      -3.682   2.926   0.476  1.00  0.00     0.073 C 
HETATM   20  N   UNL     1      -4.745   1.200  -0.941  1.00  0.00    -0.163 NA
HETATM   21  O   UNL     1      -3.857  -2.693  -1.182  1.00  0.00    -0.266 OA
ENDBRANCH   1  14
TORSDOF 1
