REMARK  2 active torsions:
REMARK  status: ('A' for Active; 'I' for Inactive)
REMARK    1  A    between atoms: S_2  and  C_3 
REMARK    2  A    between atoms: C_3  and  C_5 
ROOT
HETATM    1  C   UNL     1       1.268   0.120   0.787  1.00  0.00     0.123 A 
HETATM    2  C   UNL     1       1.102  -0.041   2.218  1.00  0.00     0.078 C 
HETATM    3  N   UNL     1       0.943  -0.224   3.352  1.00  0.00    -0.196 NA
HETATM    4  C   UNL     1       0.782  -1.071  -0.039  1.00  0.00     0.040 A 
HETATM    5  C   UNL     1       0.030   0.227  -0.113  1.00  0.00     0.015 A 
HETATM    6  C   UNL     1      -1.339   0.374   0.461  1.00  0.00     0.012 C 
ENDROOT
BRANCH   1   7
HETATM    7  C   UNL     1       2.431   0.989   0.411  1.00  0.00     0.208 C 
HETATM    8  O   UNL     1       2.769   1.937   1.107  1.00  0.00    -0.284 OA
BRANCH   7   9
HETATM    9  S   UNL     1       3.270   0.663  -1.101  1.00  0.00    -0.095 SA
HETATM   10  C   UNL     1       4.745  -0.104  -0.408  1.00  0.00     0.099 C 
ENDBRANCH   7   9
ENDBRANCH   1   7
TORSDOF 2
