REMARK  8 active torsions:
REMARK  status: ('A' for Active; 'I' for Inactive)
REMARK    1  A    between atoms: C_2  and  C_3 
REMARK    2  A    between atoms: C_3  and  O_5 
REMARK    3  A    between atoms: O_5  and  C_6 
REMARK    4  A    between atoms: C_6  and  C_7 
REMARK    5  A    between atoms: C_7  and  C_8 
REMARK    6  A    between atoms: C_8  and  N_11 
REMARK       I    between atoms: N_11  and  C_12 
REMARK    7  A    between atoms: C_12  and  O_14 
REMARK    8  A    between atoms: O_14  and  C_15 
ROOT
HETATM    1  N   UNL     1       2.376   1.721  -0.904  1.00  0.00    -0.328 N 
HETATM    2  C   UNL     1       1.126   1.214  -1.176  1.00  0.00     0.366 C 
HETATM    3  O   UNL     1       0.488   1.594  -2.144  1.00  0.00    -0.238 OA
HETATM    4  H   UNL     1       2.639   2.395  -1.615  1.00  0.00     0.165 HD
ENDROOT
BRANCH   1   5
HETATM    5  C   UNL     1       3.476   1.057  -0.171  1.00  0.00     0.029 C 
HETATM    6  C   UNL     1       3.057   0.470   1.193  1.00  0.00     0.038 C 
HETATM    7  C   UNL     1       4.028  -0.081  -1.053  1.00  0.00     0.038 C 
BRANCH   5   8
HETATM    8  C   UNL     1       4.631   2.060   0.058  1.00  0.00     0.057 C 
BRANCH   8   9
HETATM    9  C   UNL     1       4.261   3.360   0.769  1.00  0.00     0.181 C 
BRANCH   9  10
HETATM   10  O   UNL     1       5.498   4.082   0.917  1.00  0.00    -0.318 OA
BRANCH  10  11
HETATM   11  C   UNL     1       5.595   5.276   0.289  1.00  0.00     0.282 C 
HETATM   12  O   UNL     1       4.686   5.912  -0.219  1.00  0.00    -0.260 OA
BRANCH  11  13
HETATM   13  C   UNL     1       7.000   5.735   0.253  1.00  0.00     0.072 C 
HETATM   14  C   UNL     1       8.058   4.926   0.403  1.00  0.00     0.017 C 
ENDBRANCH  11  13
ENDBRANCH  10  11
ENDBRANCH   9  10
ENDBRANCH   8   9
ENDBRANCH   5   8
ENDBRANCH   1   5
BRANCH   2  15
HETATM   15  O   UNL     1       0.765   0.249  -0.290  1.00  0.00    -0.256 OA
BRANCH  15  16
HETATM   16  C   UNL     1      -0.491  -0.398  -0.259  1.00  0.00     0.148 C 
HETATM   17  C   UNL     1      -1.788   0.320  -0.401  1.00  0.00     0.187 C 
HETATM   18  C   UNL     1      -3.031  -0.449  -0.021  1.00  0.00     0.112 C 
HETATM   19  O   UNL     1      -1.853   1.516  -0.668  1.00  0.00    -0.290 OA
HETATM   20  C   UNL     1      -2.817  -1.929  -0.256  1.00  0.00     0.182 C 
HETATM   21  O   UNL     1      -1.649  -2.427   0.400  1.00  0.00    -0.360 OA
HETATM   22  C   UNL     1      -0.538  -1.662   0.181  1.00  0.00     0.175 C 
ENDBRANCH  15  16
ENDBRANCH   2  15
TORSDOF 8
