REMARK  3 active torsions:
REMARK  status: ('A' for Active; 'I' for Inactive)
REMARK    1  A    between atoms: N_4  and  C_5 
REMARK    2  A    between atoms: C_10  and  O_11 
REMARK    3  A    between atoms: O_11  and  C_12 
ROOT
HETATM    1  C   UNL     1      -2.908  -2.232  -0.083  1.00  0.00     0.088 A 
HETATM    2  C   UNL     1      -2.871  -3.580   0.328  1.00  0.00     0.034 A 
HETATM    3  C   UNL     1      -3.964  -4.426   0.107  1.00  0.00     0.002 A 
HETATM    4  C   UNL     1      -5.093  -3.951  -0.548  1.00  0.00     0.003 A 
HETATM    5  C   UNL     1      -5.149  -2.617  -0.946  1.00  0.00     0.040 A 
HETATM    6  C   UNL     1      -4.093  -1.739  -0.664  1.00  0.00     0.104 A 
ENDROOT
BRANCH   6   7
HETATM    7  O   UNL     1      -4.186  -0.454  -1.146  1.00  0.00    -0.308 OA
BRANCH   7   8
HETATM    8  C   UNL     1      -4.972   0.463  -0.477  1.00  0.00     0.076 A 
HETATM    9  C   UNL     1      -6.103   0.174   0.288  1.00  0.00     0.037 A 
HETATM   10  C   UNL     1      -6.867   1.211   0.835  1.00  0.00     0.003 A 
HETATM   11  C   UNL     1      -6.493   2.539   0.636  1.00  0.00     0.000 A 
HETATM   12  C   UNL     1      -5.353   2.834  -0.107  1.00  0.00     0.003 A 
HETATM   13  C   UNL     1      -4.601   1.799  -0.666  1.00  0.00     0.037 A 
ENDBRANCH   7   8
ENDBRANCH   6   7
BRANCH   1  14
HETATM   14  N   UNL     1      -1.728  -1.442   0.008  1.00  0.00    -0.245 N 
HETATM   15  C   UNL     1      -0.441  -1.861   0.285  1.00  0.00     0.142 A 
HETATM   16  C   UNL     1       0.361  -0.787  -0.031  1.00  0.00     0.065 A 
HETATM   17  C   UNL     1       1.829  -0.686  -0.125  1.00  0.00     0.073 C 
HETATM   18  N   UNL     1      -0.428   0.276  -0.348  1.00  0.00    -0.163 NA
HETATM   19  N   UNL     1      -1.690  -0.121  -0.298  1.00  0.00     0.009 NA
ENDBRANCH   1  14
TORSDOF 3
