REMARK  2 active torsions:
REMARK  status: ('A' for Active; 'I' for Inactive)
REMARK       I    between atoms: N_4  and  C_5 
REMARK    1  A    between atoms: C_5  and  C_7 
REMARK    2  A    between atoms: C_12  and  N_13 
ROOT
HETATM    1  C   UNL     1      -4.682   0.706   0.410  1.00  0.00     0.060 A 
HETATM    2  C   UNL     1      -4.842  -0.620   0.850  1.00  0.00     0.019 A 
HETATM    3  C   UNL     1      -6.059  -1.281   0.689  1.00  0.00     0.001 A 
HETATM    4  C   UNL     1      -7.139  -0.613   0.119  1.00  0.00     0.002 A 
HETATM    5  C   UNL     1      -7.003   0.720  -0.272  1.00  0.00     0.030 A 
HETATM    6  C   UNL     1      -5.780   1.396  -0.148  1.00  0.00     0.041 A 
ENDROOT
BRANCH   1   7
HETATM    7  C   UNL     1      -3.350   1.379   0.543  1.00  0.00     0.277 C 
HETATM    8  N   UNL     1      -2.113   0.715   0.406  1.00  0.00    -0.211 N 
HETATM    9  C   UNL     1      -1.814  -0.545  -0.073  1.00  0.00     0.145 A 
HETATM   10  N   UNL     1      -0.959   1.325   0.782  1.00  0.00     0.012 NA
HETATM   11  C   UNL     1      -0.465  -0.701   0.149  1.00  0.00     0.066 A 
HETATM   12  C   UNL     1       0.407  -1.868  -0.084  1.00  0.00     0.073 C 
HETATM   13  N   UNL     1       0.036   0.457   0.667  1.00  0.00    -0.163 NA
HETATM   14  O   UNL     1      -3.319   2.591   0.756  1.00  0.00    -0.266 OA
ENDBRANCH   1   7
BRANCH   6  15
HETATM   15  N   UNL     1      -5.768   2.771  -0.400  1.00  0.00    -0.398 N 
HETATM   16  H   UNL     1      -4.854   3.225  -0.342  1.00  0.00     0.156 HD
HETATM   17  H   UNL     1      -6.382   3.123  -1.124  1.00  0.00     0.156 HD
ENDBRANCH   6  15
TORSDOF 2
