REMARK  2 active torsions:
REMARK  status: ('A' for Active; 'I' for Inactive)
REMARK    1  A    between atoms: S_2  and  C_3 
REMARK    2  A    between atoms: C_5  and  O_6 
ROOT
HETATM    1  C   UNL     1       0.429  -0.454  -0.614  1.00  0.00     0.020 C 
HETATM    2  C   UNL     1       0.330   0.929   0.053  1.00  0.00     0.044 C 
HETATM    3  C   UNL     1       1.849   0.888   0.314  1.00  0.00     0.120 C 
HETATM    4  C   UNL     1       1.819  -0.626   0.050  1.00  0.00     0.044 C 
ENDROOT
BRANCH   1   5
HETATM    5  S   UNL     1      -0.707  -1.707   0.000  1.00  0.00    -0.290 SA
HETATM    6  C   UNL     1      -1.673  -1.448   0.000  1.00  0.00     0.248 C 
ENDBRANCH   1   5
BRANCH   3   7
HETATM    7  O   UNL     1       2.670   1.660  -0.581  1.00  0.00    -0.396 OA
HETATM    8  H   UNL     1       3.586   1.463  -0.311  1.00  0.00     0.210 HD
ENDBRANCH   3   7
TORSDOF 2
