REMARK  6 active torsions:
REMARK  status: ('A' for Active; 'I' for Inactive)
REMARK    1  A    between atoms: C_2  and  C_3 
REMARK    2  A    between atoms: C_3  and  C_4 
REMARK    3  A    between atoms: C_4  and  N_5 
REMARK    4  A    between atoms: N_5  and  C_6 
REMARK    5  A    between atoms: C_6  and  C_8 
REMARK    6  A    between atoms: C_8  and  S_10 
ROOT
HETATM    1  N   UNL     1      -0.072   4.307  -0.408  1.00  0.00     0.096 N 
HETATM    2  H   UNL     1      -0.131   5.248  -0.017  1.00  0.00     0.316 HD
ENDROOT
BRANCH   1   3
HETATM    3  C   UNL     1       1.256   3.755  -0.112  1.00  0.00     0.274 C 
BRANCH   3   4
HETATM    4  C   UNL     1       2.454   4.707  -0.192  1.00  0.00     0.056 C 
BRANCH   4   5
HETATM    5  C   UNL     1       3.793   4.025   0.041  1.00  0.00    -0.035 C 
HETATM    6  C   UNL     1       4.019   2.724   0.292  1.00  0.00     0.007 C 
ENDBRANCH   4   5
ENDBRANCH   3   4
ENDBRANCH   1   3
BRANCH   1   7
HETATM    7  C   UNL     1      -1.195   3.491   0.168  1.00  0.00     0.293 C 
HETATM    8  C   UNL     1      -2.496   4.258  -0.092  1.00  0.00     0.051 C 
BRANCH   7   9
HETATM    9  C   UNL     1      -1.337   2.031  -0.375  1.00  0.00     0.188 C 
HETATM   10  O   UNL     1      -2.336   1.591  -0.931  1.00  0.00    -0.286 OA
BRANCH   9  11
HETATM   11  S   UNL     1       0.000   1.000   0.000  1.00  0.00    -0.230 SA
HETATM   12  C   UNL     1       0.000   0.000   0.000  1.00  0.00     0.270 C 
ENDBRANCH   9  11
ENDBRANCH   7   9
ENDBRANCH   1   7
TORSDOF 6
