REMARK  3 active torsions:
REMARK  status: ('A' for Active; 'I' for Inactive)
REMARK    1  A    between atoms: C_2  and  O_3 
REMARK    2  A    between atoms: O_3  and  C_4 
REMARK    3  A    between atoms: C_4  and  C_5 
ROOT
HETATM    1  C   UNL     1       1.329   0.708  -0.202  1.00  0.00     0.009 A 
HETATM    2  C   UNL     1       2.783   0.519  -0.514  1.00  0.00     0.179 C 
HETATM    3  O   UNL     1       3.101  -0.864  -0.282  1.00  0.00    -0.390 OA
HETATM    4  C   UNL     1       2.071  -1.455   0.531  1.00  0.00     0.173 C 
HETATM    5  C   UNL     1       0.894  -0.546   0.465  1.00  0.00     0.023 A 
HETATM    6  C   UNL     1       0.294  -0.185  -0.867  1.00  0.00     0.022 A 
ENDROOT
BRANCH   1   7
HETATM    7  C   UNL     1       0.946   2.073   0.310  1.00  0.00     0.190 C 
BRANCH   7   8
HETATM    8  O   UNL     1      -0.474   2.181   0.476  1.00  0.00    -0.328 OA
BRANCH   8   9
HETATM    9  C   UNL     1      -1.001   3.410   0.287  1.00  0.00     0.398 C 
HETATM   10  O   UNL     1      -2.199   3.650   0.323  1.00  0.00    -0.276 OA
ENDBRANCH   8   9
ENDBRANCH   7   8
ENDBRANCH   1   7
TORSDOF 3
