REMARK  4 active torsions:
REMARK  status: ('A' for Active; 'I' for Inactive)
REMARK    1  A    between atoms: O_2  and  C_3 
REMARK    2  A    between atoms: C_9  and  C_10 
REMARK    3  A    between atoms: C_10  and  C_12 
REMARK    4  A    between atoms: C_12  and  N_13 
ROOT
HETATM    1  C   UNL     1       0.560  -0.707   0.219  1.00  0.00     0.069 A 
HETATM    2  C   UNL     1       0.592  -2.056   0.566  1.00  0.00     0.039 A 
HETATM    3  C   UNL     1      -0.571  -2.719   0.996  1.00  0.00     0.033 A 
HETATM    4  C   UNL     1      -1.758  -1.980   1.072  1.00  0.00     0.043 A 
HETATM    5  N   UNL     1      -3.019  -2.357   1.462  1.00  0.00    -0.364 N 
HETATM    6  C   UNL     1      -3.870  -1.283   1.401  1.00  0.00     0.104 A 
HETATM    7  C   UNL     1      -3.190  -0.203   0.876  1.00  0.00     0.039 A 
HETATM    8  C   UNL     1      -1.827  -0.632   0.727  1.00  0.00     0.009 A 
HETATM    9  C   UNL     1      -0.645   0.001   0.295  1.00  0.00     0.051 A 
HETATM   10  H   UNL     1      -3.276  -3.285   1.772  1.00  0.00     0.165 HD
ENDROOT
BRANCH   7  11
HETATM   11  C   UNL     1      -3.712   1.135   0.564  1.00  0.00     0.181 C 
HETATM   12  O   UNL     1      -2.997   2.124   0.764  1.00  0.00    -0.290 OA
BRANCH  11  13
HETATM   13  C   UNL     1      -5.032   1.365  -0.139  1.00  0.00     0.230 C 
BRANCH  13  14
HETATM   14  N   UNL     1      -5.926   0.237  -0.210  1.00  0.00    -0.276 N 
HETATM   15  N   UNL     1      -6.908   0.094   0.699  1.00  0.00     0.005 NA
HETATM   16  N   UNL     1      -7.488  -1.076   0.473  1.00  0.00    -0.164 NA
HETATM   17  C   UNL     1      -6.892  -1.646  -0.621  1.00  0.00     0.065 A 
HETATM   18  C   UNL     1      -5.933  -0.787  -1.110  1.00  0.00     0.136 A 
HETATM   19  C   UNL     1      -7.263  -3.002  -1.063  1.00  0.00     0.073 C 
ENDBRANCH  13  14
ENDBRANCH  11  13
ENDBRANCH   7  11
BRANCH   1  20
HETATM   20  O   UNL     1       1.587   0.040  -0.280  1.00  0.00    -0.356 OA
HETATM   21  C   UNL     1       2.930  -0.366  -0.087  1.00  0.00     0.210 C 
ENDBRANCH   1  20
TORSDOF 4
