REMARK  3 active torsions:
REMARK  status: ('A' for Active; 'I' for Inactive)
REMARK    1  A    between atoms: C_2  and  O_3 
REMARK    2  A    between atoms: O_3  and  C_4 
REMARK    3  A    between atoms: C_4  and  C_5 
ROOT
HETATM    1  C   UNL     1       0.890  -0.254  -0.536  1.00  0.00     0.030 A 
HETATM    2  C   UNL     1       0.199  -1.349   0.238  1.00  0.00     0.029 A 
HETATM    3  C   UNL     1      -0.388   0.032   0.202  1.00  0.00     0.089 A 
HETATM    4 CL   UNL     1      -1.850   0.311  -0.706  1.00  0.00    -0.125 Cl
ENDROOT
BRANCH   1   5
HETATM    5  C   UNL     1       2.177   0.329  -0.049  1.00  0.00     0.184 C 
BRANCH   5   6
HETATM    6  O   UNL     1       2.128   1.746  -0.245  1.00  0.00    -0.328 OA
BRANCH   6   7
HETATM    7  C   UNL     1       3.266   2.387   0.117  1.00  0.00     0.398 C 
HETATM    8  O   UNL     1       4.276   1.873   0.567  1.00  0.00    -0.276 OA
ENDBRANCH   6   7
ENDBRANCH   5   6
ENDBRANCH   1   5
TORSDOF 3
