REMARK  12 active torsions:
REMARK  status: ('A' for Active; 'I' for Inactive)
REMARK    1  A    between atoms: C_2  and  C_4 
REMARK    2  A    between atoms: C_4  and  C_5 
REMARK    3  A    between atoms: C_5  and  C_7 
REMARK    4  A    between atoms: C_7  and  O_8 
REMARK    5  A    between atoms: C_7  and  C_9 
REMARK    6  A    between atoms: C_9  and  C_11 
REMARK    7  A    between atoms: C_11  and  C_12 
REMARK    8  A    between atoms: C_11  and  C_15 
REMARK    9  A    between atoms: C_12  and  C_13 
REMARK   10  A    between atoms: C_13  and  O_14 
REMARK   11  A    between atoms: C_15  and  C_17 
REMARK   12  A    between atoms: C_22  and  N_23 
ROOT
HETATM    1  N   UNL     1       1.083   2.147  -0.749  1.00  0.00    -0.072 NA
HETATM    2  N   UNL     1       1.006   2.755   0.326  1.00  0.00    -0.162 NA
HETATM    3  N   UNL     1       0.922   3.332   1.311  1.00  0.00     0.068 N 
ENDROOT
BRANCH   1   4
HETATM    4  C   UNL     1       1.015   0.752  -0.610  1.00  0.00     0.107 C 
HETATM    5  C   UNL     1      -0.159   0.035  -0.890  1.00  0.00     0.042 C 
HETATM    6  C   UNL     1      -0.106  -1.345  -1.040  1.00  0.00     0.017 C 
HETATM    7  C   UNL     1       1.051  -2.052  -0.710  1.00  0.00     0.001 C 
HETATM    8  C   UNL     1       2.193  -1.364  -0.318  1.00  0.00     0.002 C 
HETATM    9  C   UNL     1       2.192   0.029  -0.317  1.00  0.00     0.035 C 
BRANCH   5  10
HETATM   10  C   UNL     1      -1.501   0.675  -1.024  1.00  0.00     0.173 C 
HETATM   11  O   UNL     1      -1.835   1.120  -2.116  1.00  0.00    -0.291 OA
BRANCH  10  12
HETATM   12  C   UNL     1      -2.356   0.802   0.241  1.00  0.00     0.135 C 
BRANCH  12  13
HETATM   13  C   UNL     1      -2.664  -0.480   1.027  1.00  0.00     0.174 C 
HETATM   14  O   UNL     1      -2.240  -0.562   2.189  1.00  0.00    -0.294 OA
BRANCH  13  15
HETATM   15  C   UNL     1      -3.535  -1.629   0.470  1.00  0.00     0.258 C 
BRANCH  15  16
HETATM   16  C   UNL     1      -2.803  -2.929   0.144  1.00  0.00     0.169 C 
HETATM   17  O   UNL     1      -1.652  -3.155   0.517  1.00  0.00    -0.294 OA
BRANCH  16  18
HETATM   18  C   UNL     1      -3.580  -4.000  -0.595  1.00  0.00     0.159 C 
BRANCH  18  19
HETATM   19  C   UNL     1      -4.227  -4.980   0.359  1.00  0.00     0.130 C 
HETATM   20  C   UNL     1      -5.632  -5.406   0.073  1.00  0.00     0.091 C 
HETATM   21  O   UNL     1      -3.644  -5.382   1.357  1.00  0.00    -0.298 OA
ENDBRANCH  18  19
ENDBRANCH  16  18
ENDBRANCH  15  16
BRANCH  15  22
HETATM   22  O   UNL     1      -4.384  -1.305  -0.605  1.00  0.00    -0.380 OA
HETATM   23  H   UNL     1      -5.311  -1.399  -0.303  1.00  0.00     0.211 HD
ENDBRANCH  15  22
ENDBRANCH  13  15
ENDBRANCH  12  13
BRANCH  12  24
HETATM   24  C   UNL     1      -3.507   1.841   0.146  1.00  0.00     0.046 C 
BRANCH  24  25
HETATM   25  C   UNL     1      -4.910   1.361  -0.198  1.00  0.00     0.165 C 
BRANCH  25  26
HETATM   26  O   UNL     1      -5.828   2.449  -0.219  1.00  0.00    -0.401 OA
HETATM   27  H   UNL     1      -5.886   2.818   0.679  1.00  0.00     0.209 HD
ENDBRANCH  25  26
ENDBRANCH  24  25
ENDBRANCH  12  24
ENDBRANCH  10  12
ENDBRANCH   5  10
ENDBRANCH   1   4
TORSDOF 12
