REMARK  3 active torsions:
REMARK  status: ('A' for Active; 'I' for Inactive)
REMARK    1  A    between atoms: N_4  and  C_5 
REMARK    2  A    between atoms: C_5  and  C_6 
REMARK       I    between atoms: C_6  and  N_8 
REMARK       I    between atoms: N_8  and  C_9 
REMARK       I    between atoms: C_9  and  N_11 
REMARK    3  A    between atoms: N_11  and  C_12 
ROOT
HETATM    1  C   UNL     1       0.077   3.851  -0.141  1.00  0.00     0.224 C 
HETATM    2  O   UNL     1       0.314   5.062  -0.062  1.00  0.00    -0.278 OA
HETATM    3  N   UNL     1      -1.106   3.375  -0.653  1.00  0.00    -0.178 NA
HETATM    4  C   UNL     1      -2.137   3.232   0.237  1.00  0.00     0.305 C 
HETATM    5  O   UNL     1      -2.052   3.497   1.432  1.00  0.00    -0.253 OA
HETATM    6  N   UNL     1      -3.303   2.816  -0.376  1.00  0.00    -0.312 N 
HETATM    7  H   UNL     1      -1.029   2.569  -1.265  1.00  0.00     0.141 HD
HETATM    8  H   UNL     1      -3.306   1.850  -0.670  1.00  0.00     0.170 HD
ENDROOT
BRANCH   6   9
HETATM    9  C   UNL     1      -4.568   3.408  -0.071  1.00  0.00     0.047 A 
HETATM   10  C   UNL     1      -4.678   4.834   0.052  1.00  0.00    -0.035 A 
HETATM   11  C   UNL     1      -5.934   5.426   0.231  1.00  0.00     0.009 A 
HETATM   12  C   UNL     1      -3.547   5.837  -0.006  1.00  0.00     0.050 C 
HETATM   13  C   UNL     1      -7.066   4.651   0.264  1.00  0.00     0.001 A 
HETATM   14  C   UNL     1      -6.931   3.269   0.153  1.00  0.00     0.009 A 
HETATM   15  C   UNL     1      -5.696   2.539   0.000  1.00  0.00    -0.035 A 
HETATM   16  C   UNL     1      -5.696   1.539   0.000  1.00  0.00     0.050 C 
ENDBRANCH   6   9
BRANCH   1  17
HETATM   17  C   UNL     1       1.083   2.832   0.356  1.00  0.00     0.242 C 
BRANCH  17  18
HETATM   18  N   UNL     1       0.684   1.478   0.049  1.00  0.00    -0.275 N 
HETATM   19  C   UNL     1       0.024   0.612   0.880  1.00  0.00     0.136 A 
HETATM   20  C   UNL     1      -0.661  -0.210   0.017  1.00  0.00     0.065 A 
HETATM   21  C   UNL     1      -1.680  -1.236   0.311  1.00  0.00     0.073 C 
HETATM   22  N   UNL     1      -0.337   0.115  -1.274  1.00  0.00    -0.164 NA
HETATM   23  N   UNL     1       0.518   1.125  -1.246  1.00  0.00     0.005 NA
ENDBRANCH  17  18
ENDBRANCH   1  17
TORSDOF 3
