REMARK  1 active torsions:
REMARK  status: ('A' for Active; 'I' for Inactive)
REMARK    1  A    between atoms: N_8  and  C_9 
ROOT
HETATM    1  C   UNL     1      -0.866  -1.500   0.000  1.00  0.00     0.033 C 
HETATM    2  C   UNL     1      -0.866  -0.500   0.000  1.00  0.00     0.095 C 
HETATM    3  C   UNL     1      -2.074   0.234   0.709  1.00  0.00     0.053 C 
HETATM    4  C   UNL     1      -1.960   1.717   0.607  1.00  0.00    -0.019 C 
HETATM    5  C   UNL     1      -0.772   2.312   0.465  1.00  0.00     0.071 C 
HETATM    6  C   UNL     1       0.508   1.551   0.472  1.00  0.00     0.249 C 
HETATM    7  O   UNL     1       1.539   2.216   0.490  1.00  0.00    -0.268 OA
HETATM    8  N   UNL     1       0.421   0.162   0.435  1.00  0.00    -0.287 N 
ENDROOT
BRANCH   8   9
HETATM    9  C   UNL     1       1.629  -0.507   0.310  1.00  0.00     0.358 C 
HETATM   10  O   UNL     1       2.667  -0.303   0.926  1.00  0.00    -0.283 OA
ENDBRANCH   8   9
TORSDOF 1
