REMARK  2 active torsions:
REMARK  status: ('A' for Active; 'I' for Inactive)
REMARK    1  A    between atoms: S_2  and  C_3 
REMARK    2  A    between atoms: C_3  and  C_5 
ROOT
HETATM    1  C   UNL     1      -0.024   0.337   0.162  1.00  0.00     0.021 A 
HETATM    2  C   UNL     1      -1.103   1.233   0.230  1.00  0.00     0.016 A 
HETATM    3  C   UNL     1      -0.891   2.614   0.142  1.00  0.00     0.001 A 
HETATM    4  C   UNL     1       0.394   3.117   0.007  1.00  0.00     0.000 A 
HETATM    5  C   UNL     1       1.480   2.245  -0.049  1.00  0.00     0.001 A 
HETATM    6  C   UNL     1       1.268   0.865   0.016  1.00  0.00     0.016 A 
ENDROOT
BRANCH   1   7
HETATM    7  C   UNL     1      -0.170  -1.149   0.189  1.00  0.00     0.218 C 
HETATM    8  O   UNL     1       0.725  -1.866  -0.237  1.00  0.00    -0.280 OA
BRANCH   7   9
HETATM    9  S   UNL     1      -1.582  -1.875   0.952  1.00  0.00    -0.092 SA
HETATM   10  C   UNL     1      -2.880  -1.516  -0.248  1.00  0.00     0.099 C 
ENDBRANCH   7   9
ENDBRANCH   1   7
TORSDOF 2
