REMARK  2 active torsions:
REMARK  status: ('A' for Active; 'I' for Inactive)
REMARK    1  A    between atoms: N_4  and  C_5 
REMARK    2  A    between atoms: C_5  and  C_6 
ROOT
HETATM    1  C   UNL     1      -4.589   0.213  -1.089  1.00  0.00     0.038 C 
HETATM    2  C   UNL     1      -4.754  -1.119  -0.357  1.00  0.00     0.010 C 
HETATM    3  C   UNL     1      -6.192  -1.631  -0.493  1.00  0.00     0.031 C 
HETATM    4  C   UNL     1      -7.213  -0.501  -0.660  1.00  0.00     0.273 C 
HETATM    5  N   UNL     1      -6.761   0.679   0.071  1.00  0.00     0.093 N 
HETATM    6  C   UNL     1      -7.807   1.685   0.248  1.00  0.00     0.273 C 
HETATM    7  C   UNL     1      -7.332   2.746   1.245  1.00  0.00     0.030 C 
HETATM    8  C   UNL     1      -5.967   3.327   0.881  1.00  0.00     0.004 C 
HETATM    9  C   UNL     1      -4.952   2.229   0.545  1.00  0.00     0.036 C 
HETATM   10  C   UNL     1      -5.543   1.287  -0.514  1.00  0.00     0.228 C 
ENDROOT
BRANCH   1  11
HETATM   11  C   UNL     1      -3.153   0.690  -1.352  1.00  0.00     0.152 C 
BRANCH  11  12
HETATM   12  N   UNL     1      -2.122   0.615  -0.333  1.00  0.00    -0.283 N 
HETATM   13  C   UNL     1      -1.755  -0.526   0.328  1.00  0.00     0.136 C 
HETATM   14  C   UNL     1      -0.434  -0.664  -0.014  1.00  0.00     0.065 C 
HETATM   15  C   UNL     1       0.387  -1.889  -0.056  1.00  0.00     0.073 C 
HETATM   16  N   UNL     1       0.028   0.533  -0.487  1.00  0.00    -0.164 NA
HETATM   17  N   UNL     1      -1.011   1.354  -0.571  1.00  0.00     0.004 NA
ENDBRANCH  11  12
ENDBRANCH   1  11
TORSDOF 2
