REMARK  18 active torsions:
REMARK  status: ('A' for Active; 'I' for Inactive)
REMARK    1  A    between atoms: C_2  and  O_3 
REMARK    2  A    between atoms: O_3  and  C_4 
REMARK    3  A    between atoms: C_4  and  C_6 
REMARK    4  A    between atoms: C_6  and  C_7 
REMARK    5  A    between atoms: C_6  and  N_14 
REMARK    6  A    between atoms: C_7  and  C_8 
REMARK       I    between atoms: N_14  and  C_15 
REMARK    7  A    between atoms: C_15  and  O_17 
REMARK    8  A    between atoms: O_17  and  C_18 
REMARK    9  A    between atoms: C_18  and  C_19 
REMARK   10  A    between atoms: C_19  and  C_20 
REMARK   11  A    between atoms: C_20  and  C_21 
REMARK   12  A    between atoms: C_20  and  C_30 
REMARK   13  A    between atoms: C_21  and  C_23 
REMARK   14  A    between atoms: C_30  and  C_32 
REMARK   15  A    between atoms: C_32  and  O_33 
REMARK   16  A    between atoms: C_32  and  C_34 
REMARK   17  A    between atoms: C_34  and  C_36 
REMARK   18  A    between atoms: C_36  and  C_37 
ROOT
HETATM    1  C   UNL     1       0.055   0.942  -0.111  1.00  0.00     0.135 C 
ENDROOT
BRANCH   1   2
HETATM    2  C   UNL     1       1.363   1.516  -0.659  1.00  0.00     0.047 C 
BRANCH   2   3
HETATM    3  C   UNL     1       2.578   0.741  -0.192  1.00  0.00     0.181 C 
BRANCH   3   4
HETATM    4  O   UNL     1       3.607   1.729  -0.053  1.00  0.00    -0.308 OA
BRANCH   4   5
HETATM    5  C   UNL     1       3.869   2.209   1.185  1.00  0.00     0.338 C 
HETATM    6  N   UNL     1       4.731   3.244   0.996  1.00  0.00    -0.224 NA
HETATM    7  H   UNL     1       4.450   3.585   0.088  1.00  0.00     0.133 HD
HETATM    8  O   UNL     1       3.381   1.856   2.239  1.00  0.00    -0.245 OA
BRANCH   6   9
HETATM    9  C   UNL     1       6.192   2.987   0.921  1.00  0.00     0.169 C 
BRANCH   9  10
HETATM   10  C   UNL     1       6.835   4.231   0.237  1.00  0.00     0.277 C 
HETATM   11  O   UNL     1       7.807   4.198  -0.507  1.00  0.00    -0.263 OA
BRANCH  10  12
HETATM   12  O   UNL     1       6.353   5.429   0.700  1.00  0.00    -0.321 OA
BRANCH  12  13
HETATM   13  C   UNL     1       5.196   6.000   0.000  1.00  0.00     0.174 C 
HETATM   14  C   UNL     1       5.196   7.000   0.000  1.00  0.00     0.034 C 
ENDBRANCH  12  13
ENDBRANCH  10  12
ENDBRANCH   9  10
BRANCH   9  15
HETATM   15  C   UNL     1       6.474   1.666   0.157  1.00  0.00     0.068 C 
BRANCH  15  16
HETATM   16  C   UNL     1       7.781   0.928   0.212  1.00  0.00    -0.056 A 
HETATM   17  C   UNL     1       7.746  -0.440  -0.154  1.00  0.00     0.007 A 
HETATM   18  C   UNL     1       8.905  -1.212  -0.186  1.00  0.00     0.001 A 
HETATM   19  C   UNL     1      10.125  -0.622   0.143  1.00  0.00     0.000 A 
HETATM   20  C   UNL     1      10.172   0.719   0.504  1.00  0.00     0.001 A 
HETATM   21  C   UNL     1       9.008   1.492   0.546  1.00  0.00     0.007 A 
ENDBRANCH  15  16
ENDBRANCH   9  15
ENDBRANCH   6   9
ENDBRANCH   4   5
ENDBRANCH   3   4
ENDBRANCH   2   3
ENDBRANCH   1   2
BRANCH   1  22
HETATM   22  C   UNL     1      -0.397  -0.255  -0.927  1.00  0.00     0.174 C 
HETATM   23  O   UNL     1       0.004  -0.427  -2.079  1.00  0.00    -0.291 OA
BRANCH  22  24
HETATM   24  C   UNL     1      -1.415  -1.166  -0.309  1.00  0.00     0.060 A 
HETATM   25  C   UNL     1      -1.142  -2.546  -0.120  1.00  0.00     0.185 A 
HETATM   26  C   UNL     1      -2.265  -3.305   0.284  1.00  0.00     0.056 A 
HETATM   27  O   UNL     1       0.002  -3.095  -0.273  1.00  0.00    -0.287 OA
HETATM   28  C   UNL     1      -3.522  -2.752   0.569  1.00  0.00     0.004 A 
HETATM   29  C   UNL     1      -3.710  -1.386   0.473  1.00  0.00     0.001 A 
HETATM   30  C   UNL     1      -2.663  -0.596   0.019  1.00  0.00     0.019 A 
ENDBRANCH  22  24
ENDBRANCH   1  22
BRANCH   1  31
HETATM   31  C   UNL     1      -0.914   2.108  -0.138  1.00  0.00     0.174 C 
HETATM   32  O   UNL     1      -1.622   2.356  -1.117  1.00  0.00    -0.294 OA
BRANCH  31  33
HETATM   33  C   UNL     1      -0.873   3.049   1.064  1.00  0.00     0.258 C 
BRANCH  33  34
HETATM   34  O   UNL     1      -1.242   2.343   2.241  1.00  0.00    -0.380 OA
HETATM   35  H   UNL     1      -0.532   2.472   2.895  1.00  0.00     0.211 HD
ENDBRANCH  33  34
BRANCH  33  36
HETATM   36  C   UNL     1      -1.698   4.325   0.840  1.00  0.00     0.169 C 
HETATM   37  O   UNL     1      -2.629   4.655   1.582  1.00  0.00    -0.294 OA
BRANCH  36  38
HETATM   38  C   UNL     1      -1.286   5.251  -0.283  1.00  0.00     0.159 C 
BRANCH  38  39
HETATM   39  C   UNL     1       0.000   6.000   0.000  1.00  0.00     0.130 C 
HETATM   40  C   UNL     1       0.000   7.000   0.000  1.00  0.00     0.091 C 
HETATM   41  O   UNL     1       1.002   5.293   0.209  1.00  0.00    -0.298 OA
ENDBRANCH  38  39
ENDBRANCH  36  38
ENDBRANCH  33  36
ENDBRANCH  31  33
ENDBRANCH   1  31
TORSDOF 18
