REMARK  3 active torsions:
REMARK  status: ('A' for Active; 'I' for Inactive)
REMARK    1  A    between atoms: C_2  and  C_5 
REMARK    2  A    between atoms: C_5  and  O_6 
REMARK    3  A    between atoms: C_11  and  O_12 
ROOT
HETATM    1  C   UNL     1      -0.803  -2.920   0.130  1.00  0.00     0.034 C 
HETATM    2  C   UNL     1      -0.047  -1.800   0.153  1.00  0.00     0.054 C 
HETATM    3  C   UNL     1       1.274  -1.915   0.705  1.00  0.00     0.098 C 
HETATM    4  N   UNL     1       2.327  -2.023   1.175  1.00  0.00    -0.192 NA
ENDROOT
BRANCH   2   5
HETATM    5  C   UNL     1      -0.558  -0.430  -0.322  1.00  0.00     0.145 C 
HETATM    6  C   UNL     1       0.514   0.649  -0.405  1.00  0.00     0.104 C 
HETATM    7  C   UNL     1       0.322   1.881   0.087  1.00  0.00     0.170 C 
HETATM    8  O   UNL     1      -0.842   2.345   0.641  1.00  0.00    -0.360 OA
HETATM    9  C   UNL     1      -1.981   1.522   0.366  1.00  0.00     0.178 C 
HETATM   10  C   UNL     1      -1.689   0.048   0.613  1.00  0.00     0.077 C 
BRANCH   6  11
HETATM   11  O   UNL     1       1.720   0.284  -0.979  1.00  0.00    -0.360 OA
HETATM   12  H   UNL     1       2.431   0.805  -0.566  1.00  0.00     0.217 HD
ENDBRANCH   6  11
BRANCH   5  13
HETATM   13  O   UNL     1      -1.099  -0.548  -1.648  1.00  0.00    -0.377 OA
HETATM   14  H   UNL     1      -1.722  -1.289  -1.668  1.00  0.00     0.211 HD
ENDBRANCH   5  13
ENDBRANCH   2   5
TORSDOF 3
