REMARK  2 active torsions:
REMARK  status: ('A' for Active; 'I' for Inactive)
REMARK    1  A    between atoms: C_2  and  O_3 
REMARK    2  A    between atoms: O_3  and  C_4 
ROOT
HETATM    1  C   UNL     1      -0.369  -1.033   0.250  1.00  0.00     0.137 C 
HETATM    2  C   UNL     1      -0.272   0.470  -0.235  1.00  0.00     0.039 C 
HETATM    3  C   UNL     1       1.180   0.390   0.302  1.00  0.00     0.024 C 
HETATM    4  C   UNL     1       2.568   0.704  -0.201  1.00  0.00     0.274 C 
HETATM    5  N   UNL     1       3.373  -0.447   0.272  1.00  0.00     0.084 N 
HETATM    6  C   UNL     1       2.415  -1.563   0.463  1.00  0.00     0.277 C 
HETATM    7  C   UNL     1       1.130  -1.085  -0.172  1.00  0.00     0.049 C 
HETATM    8  H   UNL     1       4.064  -0.688  -0.437  1.00  0.00     0.315 HD
ENDROOT
BRANCH   1   9
HETATM    9  O   UNL     1      -1.255  -1.891  -0.497  1.00  0.00    -0.323 OA
BRANCH   9  10
HETATM   10  C   UNL     1      -2.572  -1.711  -0.222  1.00  0.00     0.398 C 
HETATM   11  O   UNL     1      -3.044  -0.907   0.563  1.00  0.00    -0.276 OA
ENDBRANCH   9  10
ENDBRANCH   1   9
TORSDOF 2
