REMARK  2 active torsions:
REMARK  status: ('A' for Active; 'I' for Inactive)
REMARK    1  A    between atoms: O_2  and  C_3 
REMARK    2  A    between atoms: C_9  and  N_10 
ROOT
HETATM    1  C   UNL     1       3.108  -0.948   0.207  1.00  0.00     0.323 A 
HETATM    2  O   UNL     1       4.300  -1.719   0.103  1.00  0.00    -0.279 OA
HETATM    3  C   UNL     1       3.961  -3.012  -0.143  1.00  0.00     0.309 A 
HETATM    4  O   UNL     1       4.755  -3.924  -0.271  1.00  0.00    -0.258 OA
HETATM    5  C   UNL     1       2.496  -3.124  -0.181  1.00  0.00     0.138 A 
HETATM    6 CL   UNL     1       1.745  -4.628  -0.376  1.00  0.00    -0.075 Cl
HETATM    7  C   UNL     1       1.996  -1.906   0.007  1.00  0.00     0.115 A 
ENDROOT
BRANCH   7   8
HETATM    8  N   UNL     1       0.687  -1.446   0.096  1.00  0.00    -0.245 N 
HETATM    9  N   UNL     1       0.330  -0.150   0.344  1.00  0.00     0.009 NA
HETATM   10  N   UNL     1      -0.988  -0.035   0.340  1.00  0.00    -0.163 NA
HETATM   11  C   UNL     1      -1.517  -1.268   0.134  1.00  0.00     0.065 A 
HETATM   12  C   UNL     1      -0.490  -2.172  -0.008  1.00  0.00     0.142 A 
HETATM   13  C   UNL     1      -2.975  -1.487   0.091  1.00  0.00     0.073 C 
ENDBRANCH   7   8
BRANCH   1  14
HETATM   14  O   UNL     1       3.103   0.058  -0.796  1.00  0.00    -0.360 OA
HETATM   15  C   UNL     1       3.443   1.331  -0.257  1.00  0.00     0.205 C 
ENDBRANCH   1  14
TORSDOF 2
