REMARK  7 active torsions:
REMARK  status: ('A' for Active; 'I' for Inactive)
REMARK    1  A    between atoms: C_2  and  C_4 
REMARK    2  A    between atoms: C_4  and  C_5 
REMARK       I    between atoms: C_5  and  N_7 
REMARK    3  A    between atoms: N_7  and  C_8 
REMARK    4  A    between atoms: C_8  and  C_9 
REMARK    5  A    between atoms: C_9  and  C_10 
REMARK    6  A    between atoms: C_10  and  S_11 
REMARK    7  A    between atoms: S_11  and  C_12 
ROOT
HETATM    1  C   UNL     1       4.287   0.691  -0.268  1.00  0.00     0.217 C 
HETATM    2  O   UNL     1       3.829   1.152   0.769  1.00  0.00    -0.274 OA
HETATM    3  N   UNL     1       3.784  -0.421  -0.907  1.00  0.00    -0.361 N 
HETATM    4  H   UNL     1       4.243  -0.749  -1.745  1.00  0.00     0.162 HD
ENDROOT
BRANCH   3   5
HETATM    5  C   UNL     1       2.767  -1.265  -0.314  1.00  0.00     0.123 C 
BRANCH   5   6
HETATM    6  C   UNL     1       1.379  -0.630  -0.311  1.00  0.00     0.030 C 
BRANCH   6   7
HETATM    7  C   UNL     1       0.314  -1.695  -0.060  1.00  0.00     0.083 C 
BRANCH   7   8
HETATM    8  S   UNL     1      -1.345  -0.960  -0.081  1.00  0.00    -0.101 SA
BRANCH   8   9
HETATM    9  C   UNL     1      -2.300  -2.431  -0.002  1.00  0.00     0.304 C 
HETATM   10  O   UNL     1      -3.524  -2.407  -0.043  1.00  0.00    -0.295 OA
ENDBRANCH   8   9
ENDBRANCH   7   8
ENDBRANCH   6   7
ENDBRANCH   5   6
ENDBRANCH   3   5
BRANCH   1  11
HETATM   11  C   UNL     1       5.556   1.240  -0.926  1.00  0.00     0.106 C 
BRANCH  11  12
HETATM   12  C   UNL     1       6.928   1.000   0.000  1.00  0.00    -0.014 C 
HETATM   13  C   UNL     1       6.928   0.000   0.000  1.00  0.00     0.010 C 
HETATM   14  C   UNL     1       8.206   1.276  -1.014  1.00  0.00     0.010 C 
ENDBRANCH  11  12
ENDBRANCH   1  11
TORSDOF 7
