REMARK  3 active torsions:
REMARK  status: ('A' for Active; 'I' for Inactive)
REMARK    1  A    between atoms: C_2  and  N_3 
REMARK    2  A    between atoms: N_3  and  C_4 
REMARK    3  A    between atoms: C_8  and  S_9 
ROOT
HETATM    1  C   UNL     1       2.076   1.145   0.000  1.00  0.00     0.051 A 
HETATM    2  C   UNL     1       3.207   0.337   0.000  1.00  0.00     0.145 A 
HETATM    3  N   UNL     1       3.211  -1.019   0.000  1.00  0.00    -0.269 NA
HETATM    4  C   UNL     1       2.004  -1.612   0.000  1.00  0.00     0.134 A 
HETATM    5  C   UNL     1       0.807  -0.903   0.000  1.00  0.00     0.019 A 
HETATM    6  C   UNL     1       0.861   0.474   0.000  1.00  0.00     0.051 A 
ENDROOT
BRANCH   1   7
HETATM    7  N   UNL     1       1.998   2.538  -0.000  1.00  0.00    -0.366 N 
HETATM    8  H   UNL     1       1.044   2.894   0.000  1.00  0.00     0.165 HD
BRANCH   7   9
HETATM    9  C   UNL     1       2.947   3.515  -0.000  1.00  0.00     0.078 C 
HETATM   10  C   UNL     1       4.281   3.465   0.000  1.00  0.00     0.029 C 
ENDBRANCH   7   9
ENDBRANCH   1   7
BRANCH   5  11
HETATM   11  S   UNL     1      -0.866  -1.500   0.000  1.00  0.00    -0.133 SA
HETATM   12  C   UNL     1      -0.866  -2.500   0.000  1.00  0.00     0.095 C 
ENDBRANCH   5  11
TORSDOF 3
