REMARK  2 active torsions:
REMARK  status: ('A' for Active; 'I' for Inactive)
REMARK    1  A    between atoms: C_4  and  O_6 
REMARK    2  A    between atoms: O_6  and  C_7 
ROOT
HETATM    1  C   UNL     1       2.598   0.500   0.000  1.00  0.00     0.119 A 
HETATM    2  C   UNL     1       2.598   1.500   0.000  1.00  0.00     0.095 A 
HETATM    3  O   UNL     1       3.731   2.059  -0.024  1.00  0.00    -0.304 OA
HETATM    4  C   UNL     1       1.732   2.000   0.000  1.00  0.00     0.166 A 
HETATM    5  C   UNL     1       1.732   3.000   0.000  1.00  0.00     0.119 A 
ENDROOT
BRANCH   4   6
HETATM    6  O   UNL     1       0.719   1.480   1.011  1.00  0.00    -0.319 OA
BRANCH   6   7
HETATM    7  C   UNL     1      -0.242   0.617   0.595  1.00  0.00     0.398 C 
HETATM    8  O   UNL     1      -1.387   0.599   1.031  1.00  0.00    -0.276 OA
ENDBRANCH   6   7
ENDBRANCH   4   6
TORSDOF 2
