REMARK  4 active torsions:
REMARK  status: ('A' for Active; 'I' for Inactive)
REMARK    1  A    between atoms: N_1  and  C_2 
REMARK    2  A    between atoms: C_5  and  O_6 
REMARK    3  A    between atoms: O_6  and  C_7 
REMARK    4  A    between atoms: C_15  and  O_16 
ROOT
HETATM    1  C   UNL     1       0.901  -1.186  -0.241  1.00  0.00     0.134 A 
HETATM    2  N   UNL     1      -0.189  -1.846  -0.660  1.00  0.00    -0.243 NA
HETATM    3  C   UNL     1      -1.357  -1.153  -0.658  1.00  0.00     0.155 A 
HETATM    4  C   UNL     1      -1.492   0.160  -0.209  1.00  0.00     0.096 A 
HETATM    5  C   UNL     1      -0.340   0.830   0.187  1.00  0.00     0.078 A 
HETATM    6  C   UNL     1       0.864   0.145   0.181  1.00  0.00     0.108 A 
ENDROOT
BRANCH   4   7
HETATM    7  O   UNL     1      -2.659   0.877  -0.189  1.00  0.00    -0.304 OA
BRANCH   7   8
HETATM    8  C   UNL     1      -3.877   0.277   0.074  1.00  0.00     0.143 C 
HETATM    9  C   UNL     1      -5.099   1.012  -0.379  1.00  0.00     0.186 C 
HETATM   10  C   UNL     1      -6.436   0.462   0.040  1.00  0.00     0.112 C 
HETATM   11  O   UNL     1      -5.010   2.067  -1.004  1.00  0.00    -0.290 OA
HETATM   12  C   UNL     1      -6.318  -1.043   0.126  1.00  0.00     0.182 C 
HETATM   13  O   UNL     1      -5.302  -1.430   1.056  1.00  0.00    -0.360 OA
HETATM   14  C   UNL     1      -4.094  -0.819   0.823  1.00  0.00     0.175 C 
ENDBRANCH   7   8
ENDBRANCH   4   7
BRANCH   6  15
HETATM   15  O   UNL     1       1.994   0.773   0.619  1.00  0.00    -0.357 OA
HETATM   16  H   UNL     1       2.645   0.056   0.751  1.00  0.00     0.217 HD
ENDBRANCH   6  15
BRANCH   1  17
HETATM   17  N   UNL     1       2.117  -1.883  -0.254  1.00  0.00    -0.285 NA
HETATM   18  H   UNL     1       1.887  -2.823  -0.578  1.00  0.00     0.125 HD
HETATM   19  H   UNL     1       2.751  -1.444  -0.916  1.00  0.00     0.125 HD
ENDBRANCH   1  17
TORSDOF 4
