REMARK  4 active torsions:
REMARK  status: ('A' for Active; 'I' for Inactive)
REMARK    1  A    between atoms: S_2  and  C_3 
REMARK    2  A    between atoms: C_3  and  C_5 
REMARK    3  A    between atoms: C_5  and  C_7 
REMARK    4  A    between atoms: C_7  and  O_9 
ROOT
HETATM    1  C   UNL     1       1.206   1.269  -1.083  1.00  0.00     0.191 C 
HETATM    2 CL   UNL     1       0.604   1.802  -2.704  1.00  0.00    -0.113 Cl
ENDROOT
BRANCH   1   3
HETATM    3  C   UNL     1       2.195   0.105  -1.286  1.00  0.00     0.206 C 
HETATM    4  O   UNL     1       2.563  -0.344  -2.371  1.00  0.00    -0.284 OA
BRANCH   3   5
HETATM    5  S   UNL     1       2.941  -0.539   0.194  1.00  0.00    -0.095 SA
HETATM    6  C   UNL     1       2.316  -2.232   0.005  1.00  0.00     0.098 C 
ENDBRANCH   3   5
ENDBRANCH   1   3
BRANCH   1   7
HETATM    7  C   UNL     1       0.000   1.000   0.000  1.00  0.00     0.140 C 
HETATM    8  C   UNL     1      -1.487   1.215  -0.544  1.00  0.00     0.041 C 
BRANCH   7   9
HETATM    9  O   UNL     1       0.000   0.000   0.000  1.00  0.00    -0.394 OA
HETATM   10  H   UNL     1      -0.351  -0.423   0.804  1.00  0.00     0.210 HD
ENDBRANCH   7   9
ENDBRANCH   1   7
TORSDOF 4
