REMARK  3 active torsions:
REMARK  status: ('A' for Active; 'I' for Inactive)
REMARK    1  A    between atoms: C_2  and  C_3 
REMARK    2  A    between atoms: C_6  and  S_7 
REMARK    3  A    between atoms: S_7  and  C_8 
ROOT
HETATM    1  C   UNL     1       1.211  -0.209   0.000  1.00  0.00    -0.037 A 
HETATM    2  C   UNL     1       1.127  -1.604  -0.000  1.00  0.00     0.012 A 
HETATM    3  C   UNL     1      -0.112  -2.261  -0.000  1.00  0.00     0.020 A 
HETATM    4  C   UNL     1      -1.308  -1.542   0.000  1.00  0.00     0.007 A 
HETATM    5  C   UNL     1      -1.225  -0.142   0.000  1.00  0.00     0.020 A 
HETATM    6  C   UNL     1       0.014   0.515   0.000  1.00  0.00     0.012 A 
ENDROOT
BRANCH   4   7
HETATM    7  S   UNL     1      -2.948  -2.239  -0.000  1.00  0.00    -0.062 SA
BRANCH   7   8
HETATM    8  C   UNL     1      -2.776  -3.980  -0.000  1.00  0.00     0.309 C 
HETATM    9  O   UNL     1      -3.757  -4.716  -0.000  1.00  0.00    -0.295 OA
ENDBRANCH   7   8
ENDBRANCH   4   7
BRANCH   1  10
HETATM   10  C   UNL     1       2.490   0.521   0.000  1.00  0.00     0.001 C 
HETATM   11  C   UNL     1       3.714  -0.025   0.000  1.00  0.00     0.012 C 
ENDBRANCH   1  10
TORSDOF 3
