REMARK  2 active torsions:
REMARK  status: ('A' for Active; 'I' for Inactive)
REMARK    1  A    between atoms: C_2  and  S_3 
REMARK    2  A    between atoms: S_3  and  C_4 
ROOT
HETATM    1  C   UNL     1      -0.746  -0.593   0.000  1.00  0.00     0.048 A 
HETATM    2  C   UNL     1      -1.944   0.130   0.000  1.00  0.00     0.046 A 
HETATM    3  C   UNL     1      -1.936   1.531   0.000  1.00  0.00     0.035 A 
HETATM    4 CL   UNL     1      -3.428   2.390  -0.000  1.00  0.00    -0.084 Cl
HETATM    5  C   UNL     1      -0.739   2.241   0.000  1.00  0.00     0.027 A 
HETATM    6  C   UNL     1       0.463   1.542   0.000  1.00  0.00     0.045 A 
HETATM    7  C   UNL     1       0.451   0.147   0.000  1.00  0.00     0.133 A 
HETATM    8  F   UNL     1       1.639  -0.481  -0.000  1.00  0.00    -0.205 F 
ENDROOT
BRANCH   1   9
HETATM    9  S   UNL     1      -0.587  -2.371  -0.000  1.00  0.00    -0.059 SA
BRANCH   9  10
HETATM   10  C   UNL     1      -2.170  -3.110   0.000  1.00  0.00     0.309 C 
HETATM   11  O   UNL     1      -3.241  -2.518  -0.000  1.00  0.00    -0.295 OA
ENDBRANCH   9  10
ENDBRANCH   1   9
TORSDOF 2
