REMARK  2 active torsions:
REMARK  status: ('A' for Active; 'I' for Inactive)
REMARK    1  A    between atoms: C_6  and  C_7 
REMARK    2  A    between atoms: C_7  and  C_9 
ROOT
HETATM    1  C   UNL     1       1.781  -0.231   0.329  1.00  0.00     0.202 C 
HETATM    2  O   UNL     1       2.711   0.431   0.811  1.00  0.00    -0.286 OA
ENDROOT
BRANCH   1   3
HETATM    3  C   UNL     1       2.029  -1.611  -0.035  1.00  0.00     0.123 C 
HETATM    4  N   UNL     1       3.289  -2.179  -0.044  1.00  0.00    -0.251 N 
HETATM    5  C   UNL     1       4.573  -1.543  -0.206  1.00  0.00     0.182 C 
HETATM    6  N   UNL     1       3.240  -3.519  -0.162  1.00  0.00    -0.066 NA
HETATM    7  N   UNL     1       2.000  -3.832  -0.487  1.00  0.00    -0.142 NA
HETATM    8  C   UNL     1       1.271  -2.674  -0.483  1.00  0.00     0.177 C 
ENDBRANCH   1   3
BRANCH   1   9
HETATM    9  C   UNL     1       0.495   0.525   0.159  1.00  0.00     0.068 C 
HETATM   10  C   UNL     1      -0.829   0.280  -0.001  1.00  0.00    -0.000 C 
HETATM   11  C   UNL     1      -1.840   1.360  -0.221  1.00  0.00     0.200 C 
HETATM   12  C   UNL     1      -1.446  -1.090  -0.008  1.00  0.00     0.069 C 
HETATM   13  C   UNL     1      -3.134   1.019  -0.431  1.00  0.00     0.189 C 
HETATM   14  O   UNL     1      -1.356   2.522  -0.232  1.00  0.00    -0.286 OA
HETATM   15  O   UNL     1      -3.702  -0.227  -0.376  1.00  0.00    -0.359 OA
HETATM   16  C   UNL     1      -2.907  -1.102   0.413  1.00  0.00     0.179 C 
ENDBRANCH   1   9
TORSDOF 2
