REMARK  10 active torsions:
REMARK  status: ('A' for Active; 'I' for Inactive)
REMARK    1  A    between atoms: C_2  and  O_3 
REMARK    2  A    between atoms: O_3  and  C_4 
REMARK    3  A    between atoms: C_4  and  C_6 
REMARK    4  A    between atoms: C_9  and  O_10 
REMARK    5  A    between atoms: O_10  and  C_11 
REMARK    6  A    between atoms: C_11  and  C_12 
REMARK    7  A    between atoms: C_12  and  C_13 
REMARK    8  A    between atoms: C_12  and  O_15 
REMARK    9  A    between atoms: C_13  and  O_14 
REMARK   10  A    between atoms: O_15  and  C_16 
ROOT
HETATM    1  C   UNL     1      -3.886  -0.065   0.870  1.00  0.00     0.210 C 
ENDROOT
BRANCH   1   2
HETATM    2  O   UNL     1      -2.877  -1.018   0.523  1.00  0.00    -0.349 OA
BRANCH   2   3
HETATM    3  C   UNL     1      -1.701  -0.480   0.109  1.00  0.00     0.068 A 
HETATM    4  C   UNL     1      -1.319  -0.740  -1.208  1.00  0.00     0.038 A 
HETATM    5  C   UNL     1      -0.096  -0.274  -1.672  1.00  0.00     0.020 A 
HETATM    6  C   UNL     1       0.743   0.413  -0.787  1.00  0.00     0.039 A 
HETATM    7  C   UNL     1       0.345   0.718   0.519  1.00  0.00     0.020 A 
HETATM    8  C   UNL     1      -0.881   0.244   0.976  1.00  0.00     0.038 A 
BRANCH   6   9
HETATM    9  C   UNL     1       2.136   0.646  -1.192  1.00  0.00     0.293 C 
HETATM   10  O   UNL     1       2.507   1.714  -1.656  1.00  0.00    -0.259 OA
BRANCH   9  11
HETATM   11  O   UNL     1       2.914  -0.467  -1.115  1.00  0.00    -0.318 OA
BRANCH  11  12
HETATM   12  C   UNL     1       2.862  -1.340   0.039  1.00  0.00     0.174 C 
HETATM   13  C   UNL     1       1.867  -2.483  -0.089  1.00  0.00     0.034 C 
ENDBRANCH  11  12
ENDBRANCH   9  11
ENDBRANCH   6   9
ENDBRANCH   2   3
ENDBRANCH   1   2
BRANCH   1  14
HETATM   14  C   UNL     1      -4.416   0.868  -0.249  1.00  0.00     0.176 C 
BRANCH  14  15
HETATM   15  C   UNL     1      -3.379   1.908  -0.703  1.00  0.00     0.198 C 
BRANCH  15  16
HETATM   16  O   UNL     1      -4.019   3.120  -1.129  1.00  0.00    -0.398 OA
HETATM   17  H   UNL     1      -3.464   3.471  -1.846  1.00  0.00     0.209 HD
ENDBRANCH  15  16
ENDBRANCH  14  15
BRANCH  14  18
HETATM   18  O   UNL     1      -4.846   0.154  -1.422  1.00  0.00    -0.336 OA
BRANCH  18  19
HETATM   19  C   UNL     1      -5.918  -0.696  -1.212  1.00  0.00     0.141 C 
HETATM   20  C   UNL     1      -5.754  -2.123  -1.550  1.00  0.00     0.205 C 
HETATM   21  C   UNL     1      -6.737  -2.927  -1.114  1.00  0.00     0.057 C 
HETATM   22  O   UNL     1      -4.712  -2.406  -2.194  1.00  0.00    -0.286 OA
HETATM   23  C   UNL     1      -7.933  -2.442  -0.364  1.00  0.00     0.206 C 
HETATM   24  O   UNL     1      -8.178  -1.026  -0.396  1.00  0.00    -0.356 OA
HETATM   25  C   UNL     1      -7.095  -0.256  -0.726  1.00  0.00     0.175 C 
ENDBRANCH  18  19
ENDBRANCH  14  18
ENDBRANCH   1  14
TORSDOF 10
