REMARK  1 active torsions:
REMARK  status: ('A' for Active; 'I' for Inactive)
REMARK    1  A    between atoms: N_8  and  C_9 
ROOT
HETATM    1  C   UNL     1      -0.866  -1.500   0.000  1.00  0.00     0.034 C 
HETATM    2  C   UNL     1      -0.866  -0.500   0.000  1.00  0.00     0.111 A 
HETATM    3  C   UNL     1      -2.035  -0.195  -1.185  1.00  0.00     0.294 C 
HETATM    4  N   UNL     1      -2.648   1.054  -0.857  1.00  0.00     0.087 N 
HETATM    5  C   UNL     1      -1.463   1.839  -0.651  1.00  0.00     0.294 C 
HETATM    6  C   UNL     1       0.000   1.000   0.000  1.00  0.00     0.111 A 
HETATM    7  C   UNL     1       1.184   1.311  -1.144  1.00  0.00     0.034 C 
HETATM    8  N   UNL     1       0.000   0.000   0.000  1.00  0.00    -0.347 N 
HETATM    9  H   UNL     1      -3.201   1.417  -1.630  1.00  0.00     0.316 HD
ENDROOT
BRANCH   8  10
HETATM   10  C   UNL     1       1.072  -0.422   0.941  1.00  0.00     0.351 C 
HETATM   11  O   UNL     1       1.889   0.303   1.499  1.00  0.00    -0.284 OA
ENDBRANCH   8  10
TORSDOF 1
