REMARK  3 active torsions:
REMARK  status: ('A' for Active; 'I' for Inactive)
REMARK    1  A    between atoms: C_2  and  N_3 
REMARK    2  A    between atoms: C_7  and  C_8 
REMARK    3  A    between atoms: N_9  and  O_10 
ROOT
HETATM    1  N   UNL     1       1.264  -0.061  -0.000  1.00  0.00    -0.282 N 
HETATM    2  C   UNL     1       1.707  -1.367   0.000  1.00  0.00     0.120 A 
HETATM    3  C   UNL     1       0.578  -2.146   0.000  1.00  0.00     0.136 A 
HETATM    4  N   UNL     1      -0.542  -1.363   0.000  1.00  0.00    -0.240 NA
HETATM    5  C   UNL     1      -0.120  -0.110   0.000  1.00  0.00     0.155 A 
ENDROOT
BRANCH   5   6
HETATM    6  C   UNL     1      -1.004   1.035   0.000  1.00  0.00     0.197 C 
HETATM    7  N   UNL     1      -2.293   0.926   0.000  1.00  0.00    -0.145 NA
BRANCH   7   8
HETATM    8  O   UNL     1      -2.975   2.164  -0.000  1.00  0.00    -0.266 OA
HETATM    9  H   UNL     1      -2.319   2.881   0.000  1.00  0.00     0.247 HD
ENDBRANCH   7   8
ENDBRANCH   5   6
BRANCH   1  10
HETATM   10  C   UNL     1       2.051   1.088   0.000  1.00  0.00     0.361 C 
HETATM   11  O   UNL     1       3.271   0.976  -0.000  1.00  0.00    -0.283 OA
ENDBRANCH   1  10
TORSDOF 3
