REMARK  15 active torsions:
REMARK  status: ('A' for Active; 'I' for Inactive)
REMARK    1  A    between atoms: O_2  and  C_3 
REMARK       I    between atoms: C_3  and  N_5 
REMARK    2  A    between atoms: N_5  and  C_6 
REMARK    3  A    between atoms: C_6  and  C_7 
REMARK    4  A    between atoms: C_7  and  C_8 
REMARK    5  A    between atoms: C_9  and  C_11 
REMARK    6  A    between atoms: C_9  and  C_18 
REMARK    7  A    between atoms: C_18  and  C_19 
REMARK    8  A    between atoms: C_18  and  C_22 
REMARK    9  A    between atoms: C_19  and  C_20 
REMARK   10  A    between atoms: C_20  and  O_21 
REMARK   11  A    between atoms: C_22  and  C_24 
REMARK   12  A    between atoms: C_24  and  O_25 
REMARK   13  A    between atoms: C_24  and  C_26 
REMARK   14  A    between atoms: C_26  and  C_28 
REMARK   15  A    between atoms: C_28  and  C_29 
ROOT
HETATM    1  C   UNL     1       2.382  -1.691   0.603  1.00  0.00     0.012 A 
HETATM    2  C   UNL     1       0.866  -1.500   0.000  1.00  0.00     0.019 A 
HETATM    3  O   UNL     1       1.366  -0.634   0.000  1.00  0.00     0.000 OA
HETATM    4  H   UNL     1       1.362  -0.008   0.784  1.00  0.00     0.000 HD
ENDROOT
BRANCH   2   5
HETATM    5  C   UNL     1      -0.447  -0.316   0.144  1.00  0.00     0.003 A 
HETATM    6  C   UNL     1      -0.500   0.671   1.201  1.00  0.00     0.179 A 
HETATM    7  C   UNL     1      -1.527   1.638   1.080  1.00  0.00     0.055 A 
HETATM    8  O   UNL     1       0.364   0.734   2.140  1.00  0.00    -0.288 OA
HETATM    9  C   UNL     1      -2.507   1.622   0.077  1.00  0.00     0.004 A 
HETATM   10  C   UNL     1      -2.477   0.649  -0.902  1.00  0.00     0.001 A 
HETATM   11  C   UNL     1      -1.432  -0.268  -0.908  1.00  0.00     0.012 A 
ENDBRANCH   2   5
BRANCH   2  12
HETATM   12  C   UNL     1       0.366  -2.366   0.000  1.00  0.00     0.075 C 
BRANCH  12  13
HETATM   13  C   UNL     1      -0.550  -2.858   1.278  1.00  0.00     0.039 C 
BRANCH  13  14
HETATM   14  C   UNL     1      -1.636  -3.903   0.963  1.00  0.00     0.165 C 
BRANCH  14  15
HETATM   15  O   UNL     1      -2.622  -3.403   0.072  1.00  0.00    -0.401 OA
HETATM   16  H   UNL     1      -2.870  -2.509   0.383  1.00  0.00     0.209 HD
ENDBRANCH  14  15
ENDBRANCH  13  14
ENDBRANCH  12  13
BRANCH  12  17
HETATM   17  C   UNL     1       0.633  -2.984  -1.287  1.00  0.00     0.168 C 
HETATM   18  O   UNL     1       0.335  -2.611  -2.420  1.00  0.00    -0.294 OA
BRANCH  17  19
HETATM   19  C   UNL     1       1.528  -4.044  -1.043  1.00  0.00     0.257 C 
BRANCH  19  20
HETATM   20  O   UNL     1       2.742  -3.808  -1.733  1.00  0.00    -0.380 OA
HETATM   21  H   UNL     1       2.611  -3.006  -2.277  1.00  0.00     0.211 HD
ENDBRANCH  19  20
BRANCH  19  22
HETATM   22  C   UNL     1       1.524  -4.320   0.711  1.00  0.00     0.169 C 
HETATM   23  O   UNL     1       2.027  -3.731   1.662  1.00  0.00    -0.294 OA
BRANCH  22  24
HETATM   24  C   UNL     1       1.329  -5.705   0.996  1.00  0.00     0.159 C 
BRANCH  24  25
HETATM   25  C   UNL     1       2.366  -5.830   0.000  1.00  0.00     0.130 C 
HETATM   26  C   UNL     1       3.366  -5.830   0.000  1.00  0.00     0.091 C 
HETATM   27  O   UNL     1       1.914  -6.496  -0.989  1.00  0.00    -0.298 OA
ENDBRANCH  24  25
ENDBRANCH  22  24
ENDBRANCH  19  22
ENDBRANCH  17  19
ENDBRANCH  12  17
ENDBRANCH   2  12
BRANCH   1  28
HETATM   28  C   UNL     1       3.502  -1.357  -0.126  1.00  0.00     0.015 C 
BRANCH  28  29
HETATM   29  C   UNL     1       4.763  -0.766   0.433  1.00  0.00     0.130 C 
BRANCH  29  30
HETATM   30  N   UNL     1       5.848  -1.368  -0.290  1.00  0.00    -0.337 N 
HETATM   31  C   UNL     1       6.916  -1.789   0.445  1.00  0.00     0.360 C 
HETATM   32  O   UNL     1       7.609  -1.085   1.155  1.00  0.00    -0.239 OA
HETATM   33  H   UNL     1       5.573  -2.002  -1.022  1.00  0.00     0.164 HD
BRANCH  31  34
HETATM   34  O   UNL     1       7.147  -3.125   0.298  1.00  0.00    -0.309 OA
HETATM   35  C   UNL     1       5.966  -3.907   0.486  1.00  0.00     0.215 C 
ENDBRANCH  31  34
ENDBRANCH  29  30
ENDBRANCH  28  29
ENDBRANCH   1  28
TORSDOF 15
