REMARK  3 active torsions:
REMARK  status: ('A' for Active; 'I' for Inactive)
REMARK    1  A    between atoms: C_7  and  O_8 
REMARK    2  A    between atoms: C_7  and  C_9 
REMARK    3  A    between atoms: C_9  and  C_10 
ROOT
HETATM    1  O   UNL     1       4.325   1.219  -0.327  1.00  0.00    -0.294 OA
HETATM    2  C   UNL     1       4.248  -0.000  -0.157  1.00  0.00     0.165 C 
HETATM    3  C   UNL     1       5.496  -0.853  -0.174  1.00  0.00     0.108 C 
HETATM    4  C   UNL     1       5.131  -2.321  -0.116  1.00  0.00     0.175 C 
HETATM    5  O   UNL     1       4.076  -2.561  -1.038  1.00  0.00    -0.387 OA
HETATM    6  C   UNL     1       2.824  -1.999  -0.614  1.00  0.00     0.213 C 
HETATM    7  C   UNL     1       2.928  -0.690   0.199  1.00  0.00     0.143 C 
ENDROOT
BRANCH   7   8
HETATM    8  O   UNL     1       3.044  -0.987   1.608  1.00  0.00    -0.380 OA
HETATM    9  H   UNL     1       3.043  -0.135   2.085  1.00  0.00     0.211 HD
ENDBRANCH   7   8
BRANCH   7  10
HETATM   10  C   UNL     1       1.726   0.266  -0.019  1.00  0.00     0.086 C 
BRANCH  10  11
HETATM   11  C   UNL     1       0.303  -0.254   0.098  1.00  0.00    -0.048 A 
HETATM   12  C   UNL     1      -0.696   0.394  -0.537  1.00  0.00     0.081 A 
HETATM   13  C   UNL     1      -2.095  -0.105  -0.470  1.00  0.00     0.245 A 
HETATM   14  N   UNL     1      -2.275  -1.269   0.234  1.00  0.00    -0.334 N 
HETATM   15  O   UNL     1      -3.011   0.491  -1.022  1.00  0.00    -0.268 OA
HETATM   16  C   UNL     1      -1.274  -1.914   0.906  1.00  0.00     0.092 A 
HETATM   17  H   UNL     1      -3.225  -1.619   0.269  1.00  0.00     0.168 HD
HETATM   18  C   UNL     1      -0.023  -1.431   0.884  1.00  0.00     0.024 A 
ENDBRANCH  10  11
ENDBRANCH   7  10
TORSDOF 3
