REMARK  10 active torsions:
REMARK  status: ('A' for Active; 'I' for Inactive)
REMARK    1  A    between atoms: S_2  and  C_3 
REMARK    2  A    between atoms: C_3  and  C_4 
REMARK    3  A    between atoms: C_4  and  O_5 
REMARK    4  A    between atoms: C_4  and  C_6 
REMARK    5  A    between atoms: C_6  and  O_7 
REMARK    6  A    between atoms: O_7  and  C_8 
REMARK    7  A    between atoms: C_8  and  C_9 
REMARK    8  A    between atoms: C_9  and  O_11 
REMARK    9  A    between atoms: O_11  and  C_12 
REMARK   10  A    between atoms: C_12  and  C_13 
ROOT
HETATM    1  O   UNL     1       3.209   0.237  -0.027  1.00  0.00    -0.386 OA
ENDROOT
BRANCH   1   2
HETATM    2  C   UNL     1       3.785   0.917  -1.159  1.00  0.00     0.200 C 
BRANCH   2   3
HETATM    3  C   UNL     1       4.167   2.364  -0.702  1.00  0.00     0.148 C 
BRANCH   3   4
HETATM    4  C   UNL     1       5.583   2.653  -1.064  1.00  0.00     0.073 C 
BRANCH   4   5
HETATM    5  S   UNL     1       6.562   1.634   0.000  1.00  0.00    -0.292 SA
HETATM    6  C   UNL     1       6.562   0.634   0.000  1.00  0.00     0.248 C 
ENDBRANCH   4   5
ENDBRANCH   3   4
BRANCH   3   7
HETATM    7  O   UNL     1       3.311   3.385  -1.182  1.00  0.00    -0.393 OA
HETATM    8  H   UNL     1       3.100   3.956  -0.453  1.00  0.00     0.210 HD
ENDBRANCH   3   7
ENDBRANCH   2   3
ENDBRANCH   1   2
BRANCH   1   9
HETATM    9  C   UNL     1       2.106   1.020   0.415  1.00  0.00     0.199 C 
BRANCH   9  10
HETATM   10  C   UNL     1       0.798   0.279   0.465  1.00  0.00     0.141 C 
HETATM   11  C   UNL     1      -0.286   1.344   0.246  1.00  0.00     0.042 C 
BRANCH  10  12
HETATM   12  O   UNL     1       0.769  -0.648  -0.620  1.00  0.00    -0.382 OA
BRANCH  12  13
HETATM   13  C   UNL     1       0.445  -1.976  -0.226  1.00  0.00     0.202 C 
BRANCH  13  14
HETATM   14  C   UNL     1      -1.015  -2.246  -0.301  1.00  0.00     0.169 A 
HETATM   15  C   UNL     1      -2.096  -1.363   0.288  1.00  0.00     0.202 A 
HETATM   16  O   UNL     1      -1.788  -1.347  -1.119  1.00  0.00    -0.379 OA
ENDBRANCH  13  14
ENDBRANCH  12  13
ENDBRANCH  10  12
ENDBRANCH   9  10
ENDBRANCH   1   9
TORSDOF 10
