REMARK  4 active torsions:
REMARK  status: ('A' for Active; 'I' for Inactive)
REMARK    1  A    between atoms: C_2  and  C_3 
REMARK       I    between atoms: C_3  and  N_5 
REMARK    2  A    between atoms: N_5  and  C_7 
REMARK    3  A    between atoms: C_7  and  C_8 
REMARK    4  A    between atoms: C_8  and  S_10 
ROOT
HETATM    1  C   UNL     1       4.466  -0.385  -0.852  1.00  0.00     0.219 C 
HETATM    2  O   UNL     1       5.264  -0.032  -1.535  1.00  0.00    -0.273 OA
HETATM    3  N   UNL     1       3.464   0.000   0.000  1.00  0.00    -0.349 N 
HETATM    4  C   UNL     1       3.464   1.000   0.000  1.00  0.00     0.153 C 
ENDROOT
BRANCH   3   5
HETATM    5  C   UNL     1       2.830  -0.126   1.437  1.00  0.00     0.213 C 
BRANCH   5   6
HETATM    6  C   UNL     1       1.539   0.508   1.262  1.00  0.00     0.173 C 
HETATM    7  O   UNL     1       1.210   1.713   1.513  1.00  0.00    -0.287 OA
BRANCH   6   8
HETATM    8  S   UNL     1       0.866  -0.500   0.000  1.00  0.00    -0.231 SA
HETATM    9  C   UNL     1       0.000   0.000   0.000  1.00  0.00     0.270 C 
ENDBRANCH   6   8
ENDBRANCH   5   6
ENDBRANCH   3   5
BRANCH   1  10
HETATM   10  C   UNL     1       4.330  -1.500   0.000  1.00  0.00     0.098 C 
HETATM   11  C   UNL     1       3.464  -2.000   0.000  1.00  0.00     0.014 C 
ENDBRANCH   1  10
TORSDOF 4
