REMARK  1 active torsions:
REMARK  status: ('A' for Active; 'I' for Inactive)
REMARK    1  A    between atoms: N_4  and  C_5 
ROOT
HETATM    1  C   UNL     1      -2.249  -0.590  -0.812  1.00  0.00     0.727 A 
HETATM    2  N   UNL     1      -2.957  -1.703  -0.777  1.00  0.00    -0.061 NA
HETATM    3  C   UNL     1      -4.231  -1.306  -0.478  1.00  0.00     0.103 A 
HETATM    4  C   UNL     1      -5.335  -2.093  -0.134  1.00  0.00     0.041 A 
HETATM    5  C   UNL     1      -6.534  -1.463   0.253  1.00  0.00    -0.054 A 
HETATM    6  C   UNL     1      -7.651  -2.320   0.784  1.00  0.00     0.049 C 
HETATM    7  C   UNL     1      -6.658  -0.062   0.144  1.00  0.00    -0.054 A 
HETATM    8  C   UNL     1      -7.955   0.631   0.477  1.00  0.00     0.049 C 
HETATM    9  C   UNL     1      -5.553   0.726  -0.220  1.00  0.00     0.040 A 
HETATM   10  C   UNL     1      -4.338   0.079  -0.471  1.00  0.00     0.081 A 
HETATM   11  N   UNL     1      -3.047   0.526  -0.666  1.00  0.00    -0.182 N 
HETATM   12  C   UNL     1      -2.613   1.886  -0.445  1.00  0.00     0.176 C 
ENDROOT
BRANCH   1  13
HETATM   13  N   UNL     1      -0.859  -0.619  -0.807  1.00  0.00    -0.076 N 
HETATM   14  C   UNL     1      -0.049  -1.719  -0.674  1.00  0.00     0.161 C 
HETATM   15  C   UNL     1       1.144  -1.193  -0.218  1.00  0.00     0.066 C 
HETATM   16  C   UNL     1       2.293  -1.884   0.385  1.00  0.00     0.073 C 
HETATM   17  N   UNL     1       1.094   0.172  -0.322  1.00  0.00    -0.163 NA
HETATM   18  N   UNL     1      -0.125   0.511  -0.735  1.00  0.00     0.024 NA
ENDBRANCH   1  13
TORSDOF 1
