REMARK  3 active torsions:
REMARK  status: ('A' for Active; 'I' for Inactive)
REMARK    1  A    between atoms: S_2  and  C_3 
REMARK    2  A    between atoms: C_3  and  C_6 
REMARK    3  A    between atoms: C_6  and  O_8 
ROOT
HETATM    1  C   UNL     1       1.315  -0.635   0.576  1.00  0.00     0.374 C 
HETATM    2  F   UNL     1       1.437  -1.491  -0.481  1.00  0.00    -0.181 F 
HETATM    3  F   UNL     1       1.847  -1.295   1.646  1.00  0.00    -0.181 F 
ENDROOT
BRANCH   1   4
HETATM    4  S   UNL     1       2.318   0.852   0.251  1.00  0.00    -0.086 SA
HETATM    5  C   UNL     1       3.861   0.017  -0.169  1.00  0.00     0.096 C 
ENDBRANCH   1   4
BRANCH   1   6
HETATM    6  C   UNL     1      -0.143  -0.222   0.828  1.00  0.00     0.227 C 
HETATM    7  O   UNL     1      -0.638   0.129   1.894  1.00  0.00    -0.645 OA
BRANCH   6   8
HETATM    8  O   UNL     1      -0.924  -0.227  -0.282  1.00  0.00    -0.771 OA
HETATM    9  H   UNL     1      -1.799   0.080   0.036  1.00  0.00     0.167 HD
ENDBRANCH   6   8
ENDBRANCH   1   6
TORSDOF 3
